/*--------------------------------*- C++ -*----------------------------------*\
| =========                 |                                                 |
| \\      /  F ield         | OpenFOAM: The Open Source CFD Toolbox           |
|  \\    /   O peration     | Version:  v1912                                 |
|   \\  /    A nd           | Website:  www.openfoam.com                      |
|    \\/     M anipulation  |                                                 |
\*---------------------------------------------------------------------------*/
FoamFile
{
    version     2.0;
    format      ascii;
    class       volScalarField;
    location    "20";
    object      epsilon;
}
// * * * * * * * * * * * * * * * * * * * * * * * * * * * * * * * * * * * * * //

dimensions      [0 2 -3 0 0 0 0];


internalField   nonuniform List<scalar> 
57100
(
4.95567e-07
4.97343e-07
4.97343e-07
4.99564e-07
4.45671e-07
4.53805e-07
4.53808e-07
4.63732e-07
4.04026e-07
4.18648e-07
4.18657e-07
4.39403e-07
3.67112e-07
3.87845e-07
3.87855e-07
4.17512e-07
3.41231e-07
3.62558e-07
3.62566e-07
3.93412e-07
3.34724e-07
3.55271e-07
3.55278e-07
3.83525e-07
3.34198e-07
3.54619e-07
3.54626e-07
3.82835e-07
3.34198e-07
3.54627e-07
3.54635e-07
3.82877e-07
3.34198e-07
3.5463e-07
3.54637e-07
3.82882e-07
3.34198e-07
3.54631e-07
3.54637e-07
3.82882e-07
3.34198e-07
3.5463e-07
3.54637e-07
3.82882e-07
3.34198e-07
3.54629e-07
3.54637e-07
3.82882e-07
3.34198e-07
3.5463e-07
3.54638e-07
3.82882e-07
3.34198e-07
3.5463e-07
3.54637e-07
3.82882e-07
3.34198e-07
3.5463e-07
3.54637e-07
3.82882e-07
3.34198e-07
3.54629e-07
3.54637e-07
3.82882e-07
3.34198e-07
3.54629e-07
3.54637e-07
3.82882e-07
3.34198e-07
3.5463e-07
3.54637e-07
3.82882e-07
3.34198e-07
3.54629e-07
3.54637e-07
3.82881e-07
3.34198e-07
3.54629e-07
3.54637e-07
3.82881e-07
3.34198e-07
3.5463e-07
3.54638e-07
3.82882e-07
3.34198e-07
3.5463e-07
3.54637e-07
3.82882e-07
3.34198e-07
3.54629e-07
3.54636e-07
3.82882e-07
3.34198e-07
3.5463e-07
3.54637e-07
3.82882e-07
3.34198e-07
3.5463e-07
3.54637e-07
3.82882e-07
3.34198e-07
3.5463e-07
3.54638e-07
3.82882e-07
3.34198e-07
3.5463e-07
3.54637e-07
3.82882e-07
3.34198e-07
3.5463e-07
3.54637e-07
3.82882e-07
3.34198e-07
3.5463e-07
3.54637e-07
3.82882e-07
3.34198e-07
3.54631e-07
3.54649e-07
3.82882e-07
5.06424e-07
5.05582e-07
5.0558e-07
5.06424e-07
5.05581e-07
5.0558e-07
5.09665e-07
5.0966e-07
5.0966e-07
5.0966e-07
5.05583e-07
5.05582e-07
5.06424e-07
5.05583e-07
5.05581e-07
5.06425e-07
4.99564e-07
4.67261e-07
4.97346e-07
4.9735e-07
4.63794e-07
4.63801e-07
4.99565e-07
4.67258e-07
4.97349e-07
4.97351e-07
4.63798e-07
4.63803e-07
4.97347e-07
4.63795e-07
4.63791e-07
4.99564e-07
4.67264e-07
4.97349e-07
4.63796e-07
4.63798e-07
4.67263e-07
4.63733e-07
4.41385e-07
4.53814e-07
4.53824e-07
4.2668e-07
4.26687e-07
4.63731e-07
4.41378e-07
4.53819e-07
4.53827e-07
4.2668e-07
4.26693e-07
4.53813e-07
4.2667e-07
4.26678e-07
4.63735e-07
4.4139e-07
4.5382e-07
4.26679e-07
4.26683e-07
4.41389e-07
4.394e-07
4.1922e-07
4.18668e-07
4.18673e-07
3.95587e-07
3.95588e-07
4.39398e-07
4.19212e-07
4.18666e-07
4.1868e-07
3.95579e-07
3.95595e-07
4.18667e-07
3.9558e-07
3.95585e-07
4.39407e-07
4.19226e-07
4.18669e-07
3.95589e-07
3.95583e-07
4.19224e-07
4.17507e-07
3.94927e-07
3.87868e-07
3.87871e-07
3.67232e-07
3.67238e-07
4.17501e-07
3.94917e-07
3.87859e-07
3.87878e-07
3.67223e-07
3.67246e-07
3.87869e-07
3.67216e-07
3.67235e-07
4.17514e-07
3.94932e-07
3.87864e-07
3.67224e-07
3.67224e-07
3.94929e-07
3.9341e-07
3.83454e-07
3.62587e-07
3.62594e-07
3.55998e-07
3.56003e-07
3.93405e-07
3.83444e-07
3.62578e-07
3.62601e-07
3.55988e-07
3.5601e-07
3.6259e-07
3.55982e-07
3.56002e-07
3.93417e-07
3.83457e-07
3.62578e-07
3.5599e-07
3.55988e-07
3.83461e-07
3.83534e-07
3.82624e-07
3.55294e-07
3.55299e-07
3.54657e-07
3.54662e-07
3.83525e-07
3.82609e-07
3.55284e-07
3.55306e-07
3.54647e-07
3.54669e-07
3.55297e-07
3.54636e-07
3.54662e-07
3.83537e-07
3.82624e-07
3.55284e-07
3.54643e-07
3.54647e-07
3.82626e-07
3.82857e-07
3.82653e-07
3.54662e-07
3.54667e-07
3.54651e-07
3.54655e-07
3.82843e-07
3.82637e-07
3.54652e-07
3.54675e-07
3.5464e-07
3.54664e-07
3.54667e-07
3.54628e-07
3.54656e-07
3.82856e-07
3.82652e-07
3.54653e-07
3.54635e-07
3.54641e-07
3.82657e-07
3.82902e-07
3.82675e-07
3.54675e-07
3.5468e-07
3.54658e-07
3.54662e-07
3.82887e-07
3.82661e-07
3.54664e-07
3.54689e-07
3.54646e-07
3.54671e-07
3.5468e-07
3.54631e-07
3.54662e-07
3.82901e-07
3.82676e-07
3.54666e-07
3.54638e-07
3.54647e-07
3.82666e-07
3.82917e-07
3.82677e-07
3.54675e-07
3.5468e-07
3.54659e-07
3.54663e-07
3.82904e-07
3.82663e-07
3.54664e-07
3.54688e-07
3.54647e-07
3.54672e-07
3.54679e-07
3.54632e-07
3.54662e-07
3.82917e-07
3.82677e-07
3.54664e-07
3.54638e-07
3.54648e-07
3.82666e-07
3.82917e-07
3.82676e-07
3.54676e-07
3.5468e-07
3.54659e-07
3.54663e-07
3.82904e-07
3.82664e-07
3.54664e-07
3.54689e-07
3.54647e-07
3.54672e-07
3.54679e-07
3.54632e-07
3.54663e-07
3.82918e-07
3.82678e-07
3.54665e-07
3.54639e-07
3.54648e-07
3.82666e-07
3.82917e-07
3.82676e-07
3.54676e-07
3.5468e-07
3.54659e-07
3.54664e-07
3.82905e-07
3.82663e-07
3.54664e-07
3.54689e-07
3.54647e-07
3.54672e-07
3.54679e-07
3.54631e-07
3.54662e-07
3.82918e-07
3.82678e-07
3.54664e-07
3.54639e-07
3.54647e-07
3.82666e-07
3.82916e-07
3.82677e-07
3.54676e-07
3.54681e-07
3.54659e-07
3.54663e-07
3.82904e-07
3.82663e-07
3.54664e-07
3.54689e-07
3.54647e-07
3.54672e-07
3.54679e-07
3.54631e-07
3.54662e-07
3.82918e-07
3.82677e-07
3.54664e-07
3.54638e-07
3.54647e-07
3.82666e-07
3.82917e-07
3.82676e-07
3.54676e-07
3.54681e-07
3.54658e-07
3.54664e-07
3.82905e-07
3.82664e-07
3.54664e-07
3.54689e-07
3.54647e-07
3.54672e-07
3.54679e-07
3.54631e-07
3.54662e-07
3.82917e-07
3.82678e-07
3.54664e-07
3.54639e-07
3.54647e-07
3.82666e-07
3.82916e-07
3.82675e-07
3.54675e-07
3.54681e-07
3.54659e-07
3.54664e-07
3.82905e-07
3.82664e-07
3.54664e-07
3.54689e-07
3.54647e-07
3.54672e-07
3.54679e-07
3.54631e-07
3.54662e-07
3.82918e-07
3.82678e-07
3.54664e-07
3.54638e-07
3.54647e-07
3.82666e-07
3.82916e-07
3.82676e-07
3.54676e-07
3.54681e-07
3.5466e-07
3.54664e-07
3.82905e-07
3.82663e-07
3.54664e-07
3.54689e-07
3.54647e-07
3.54672e-07
3.54679e-07
3.54631e-07
3.54662e-07
3.82918e-07
3.82678e-07
3.54664e-07
3.54639e-07
3.54647e-07
3.82666e-07
3.82917e-07
3.82676e-07
3.54677e-07
3.54681e-07
3.54661e-07
3.54663e-07
3.82904e-07
3.82663e-07
3.54665e-07
3.54689e-07
3.54648e-07
3.54672e-07
3.54679e-07
3.54631e-07
3.54662e-07
3.82918e-07
3.82677e-07
3.54664e-07
3.54638e-07
3.54648e-07
3.82666e-07
3.82917e-07
3.82676e-07
3.54678e-07
3.5468e-07
3.5466e-07
3.54662e-07
3.82904e-07
3.82662e-07
3.54665e-07
3.54689e-07
3.54648e-07
3.54672e-07
3.54679e-07
3.54631e-07
3.54662e-07
3.82918e-07
3.82678e-07
3.54665e-07
3.54639e-07
3.54648e-07
3.82666e-07
3.82917e-07
3.82675e-07
3.54678e-07
3.54679e-07
3.5466e-07
3.54661e-07
3.82903e-07
3.82663e-07
3.54665e-07
3.54689e-07
3.54647e-07
3.54672e-07
3.54679e-07
3.54631e-07
3.54662e-07
3.82918e-07
3.82678e-07
3.54665e-07
3.54639e-07
3.54647e-07
3.82666e-07
3.82916e-07
3.82676e-07
3.54677e-07
3.54678e-07
3.54661e-07
3.54662e-07
3.82903e-07
3.82662e-07
3.54665e-07
3.54689e-07
3.54648e-07
3.54672e-07
3.54679e-07
3.5463e-07
3.54662e-07
3.82918e-07
3.82678e-07
3.54664e-07
3.54639e-07
3.54647e-07
3.82665e-07
3.82917e-07
3.82677e-07
3.54677e-07
3.5468e-07
3.54659e-07
3.54663e-07
3.82902e-07
3.82662e-07
3.54665e-07
3.54689e-07
3.54647e-07
3.54672e-07
3.54679e-07
3.54631e-07
3.54662e-07
3.82918e-07
3.82677e-07
3.54664e-07
3.54639e-07
3.54648e-07
3.82666e-07
3.82917e-07
3.82676e-07
3.54676e-07
3.54681e-07
3.54658e-07
3.54664e-07
3.82903e-07
3.82662e-07
3.54664e-07
3.54689e-07
3.54647e-07
3.54672e-07
3.54679e-07
3.54631e-07
3.54662e-07
3.82918e-07
3.82678e-07
3.54664e-07
3.54639e-07
3.54647e-07
3.82666e-07
3.82917e-07
3.82676e-07
3.54675e-07
3.54681e-07
3.54658e-07
3.54663e-07
3.82903e-07
3.82662e-07
3.54664e-07
3.54689e-07
3.54646e-07
3.54672e-07
3.54679e-07
3.54631e-07
3.54662e-07
3.82918e-07
3.82678e-07
3.54664e-07
3.54638e-07
3.54647e-07
3.82666e-07
3.82917e-07
3.82676e-07
3.54675e-07
3.54681e-07
3.54658e-07
3.54663e-07
3.82903e-07
3.82662e-07
3.54663e-07
3.54689e-07
3.54646e-07
3.54672e-07
3.54679e-07
3.54632e-07
3.54662e-07
3.82918e-07
3.82677e-07
3.54664e-07
3.54638e-07
3.54647e-07
3.82666e-07
3.82917e-07
3.82676e-07
3.54675e-07
3.5468e-07
3.54658e-07
3.54664e-07
3.82904e-07
3.82662e-07
3.54663e-07
3.54689e-07
3.54646e-07
3.54672e-07
3.54679e-07
3.54631e-07
3.54662e-07
3.82918e-07
3.82678e-07
3.54665e-07
3.54639e-07
3.54649e-07
3.82666e-07
3.82917e-07
3.82676e-07
3.54675e-07
3.54681e-07
3.54658e-07
3.54664e-07
3.82904e-07
3.82663e-07
3.54663e-07
3.54689e-07
3.54646e-07
3.54672e-07
3.54679e-07
3.54631e-07
3.54662e-07
3.82918e-07
3.82677e-07
3.54666e-07
3.54639e-07
3.54649e-07
3.82666e-07
3.82917e-07
3.82676e-07
3.54676e-07
3.54681e-07
3.54658e-07
3.54663e-07
3.82904e-07
3.82663e-07
3.54663e-07
3.54689e-07
3.54646e-07
3.54672e-07
3.54679e-07
3.54632e-07
3.54662e-07
3.82918e-07
3.82678e-07
3.54666e-07
3.54639e-07
3.54649e-07
3.82666e-07
3.82917e-07
3.82676e-07
3.54676e-07
3.5468e-07
3.54658e-07
3.54663e-07
3.82904e-07
3.82662e-07
3.54663e-07
3.54689e-07
3.54646e-07
3.54672e-07
3.54679e-07
3.54631e-07
3.54662e-07
3.82918e-07
3.82677e-07
3.54666e-07
3.54638e-07
3.54649e-07
3.82666e-07
3.82917e-07
3.82676e-07
3.54676e-07
3.5468e-07
3.54659e-07
3.54663e-07
3.82903e-07
3.82663e-07
3.54663e-07
3.54689e-07
3.54646e-07
3.54672e-07
3.54679e-07
3.54632e-07
3.54662e-07
3.82917e-07
3.82678e-07
3.54666e-07
3.54639e-07
3.54649e-07
3.82666e-07
3.82917e-07
3.82676e-07
3.54676e-07
3.5468e-07
3.54658e-07
3.54663e-07
3.82904e-07
3.82662e-07
3.54663e-07
3.54689e-07
3.54646e-07
3.54672e-07
3.54679e-07
3.54632e-07
3.54662e-07
3.82918e-07
3.82677e-07
3.54666e-07
3.54645e-07
3.54649e-07
3.82666e-07
3.82917e-07
3.54675e-07
3.54679e-07
3.82903e-07
3.54662e-07
3.54683e-07
3.54673e-07
3.82918e-07
3.5466e-07
5.35661e-07
5.35599e-07
5.35652e-07
5.35652e-07
5.34573e-07
5.3552e-07
5.33636e-07
5.35651e-07
5.34574e-07
5.3552e-07
5.35651e-07
5.33636e-07
5.35262e-07
5.35988e-07
5.35988e-07
1.10974e-06
3.88093e-06
9.31848e-07
4.60378e-06
1.26057e-05
1.65943e-05
1.10986e-06
3.88117e-06
9.31884e-07
4.60412e-06
4.95571e-07
4.95571e-07
4.95571e-07
4.57348e-07
4.57343e-07
4.57343e-07
4.57342e-07
5.43482e-07
1.22277e-06
4.95565e-07
4.85523e-07
5.25081e-07
1.21102e-06
4.8226e-07
1.26073e-05
1.65964e-05
5.43502e-07
4.95565e-07
1.22274e-06
4.85523e-07
5.25061e-07
4.8226e-07
1.21101e-06
2.52002e-06
2.52071e-06
4.84195e-07
2.38115e-06
2.38155e-06
1.43466e-06
5.59396e-06
1.32856e-06
6.13317e-06
2.12937e-05
2.31029e-05
1.4351e-06
5.59464e-06
1.32859e-06
6.13377e-06
4.45676e-07
4.45677e-07
4.45678e-07
4.13441e-07
4.13436e-07
4.13438e-07
4.13437e-07
5.87482e-07
1.19316e-06
4.46524e-07
4.44256e-07
5.73792e-07
1.20229e-06
4.35617e-07
2.12966e-05
2.31059e-05
5.87522e-07
4.46525e-07
1.19316e-06
4.44261e-07
5.73789e-07
4.35618e-07
1.20248e-06
2.3147e-06
2.3152e-06
4.53489e-07
2.35859e-06
2.35898e-06
1.66748e-06
6.92027e-06
1.59517e-06
7.31413e-06
2.46509e-05
2.49332e-05
1.66786e-06
6.92104e-06
1.59488e-06
7.31453e-06
4.0403e-07
4.04032e-07
4.04032e-07
3.76338e-07
3.76323e-07
3.76326e-07
3.76324e-07
6.16208e-07
1.23956e-06
4.0679e-07
4.10913e-07
6.08452e-07
1.26181e-06
3.982e-07
2.46547e-05
2.49366e-05
6.16234e-07
4.06792e-07
1.23992e-06
4.10922e-07
6.08469e-07
3.98204e-07
1.26218e-06
2.47912e-06
2.47946e-06
4.30269e-07
2.53387e-06
2.53423e-06
1.80486e-06
7.85529e-06
1.77811e-06
8.07705e-06
2.47448e-05
2.4408e-05
1.80501e-06
7.85575e-06
1.77802e-06
8.07781e-06
3.67121e-07
3.67124e-07
3.67124e-07
3.45512e-07
3.45516e-07
3.45519e-07
3.45518e-07
6.24596e-07
1.31165e-06
3.72445e-07
3.80279e-07
6.2576e-07
1.31459e-06
3.6455e-07
2.47478e-05
2.44108e-05
6.24613e-07
3.72447e-07
1.31191e-06
3.80288e-07
6.25775e-07
3.64554e-07
1.3149e-06
2.64129e-06
2.64166e-06
4.0741e-07
2.64756e-06
2.64794e-06
1.66911e-06
8.3315e-06
1.7187e-06
8.44596e-06
2.41813e-05
2.41963e-05
1.66933e-06
8.33259e-06
1.71849e-06
8.4472e-06
3.41241e-07
3.41243e-07
3.41242e-07
3.35359e-07
3.35356e-07
3.35358e-07
3.35355e-07
5.8915e-07
1.29489e-06
3.47642e-07
3.59324e-07
6.02168e-07
1.2994e-06
3.44709e-07
2.4184e-05
2.41977e-05
5.89162e-07
3.47643e-07
1.29489e-06
3.59332e-07
6.02168e-07
3.44711e-07
1.2995e-06
2.62964e-06
2.6301e-06
3.86614e-07
2.67908e-06
2.67964e-06
1.65521e-06
8.52082e-06
1.65569e-06
8.52379e-06
2.42325e-05
2.42356e-05
1.65506e-06
8.52223e-06
1.6555e-06
8.52515e-06
3.34734e-07
3.34735e-07
3.34733e-07
3.34209e-07
3.3422e-07
3.34222e-07
3.34221e-07
5.83601e-07
1.32111e-06
3.4104e-07
3.54919e-07
5.84067e-07
1.32329e-06
3.40742e-07
2.42337e-05
2.42367e-05
5.83591e-07
3.41042e-07
1.32102e-06
3.54926e-07
5.84063e-07
3.40745e-07
1.32324e-06
2.7442e-06
2.74478e-06
3.82768e-07
2.7534e-06
2.75399e-06
1.65553e-06
8.52462e-06
1.65596e-06
8.52407e-06
2.42382e-05
2.42379e-05
1.65539e-06
8.52598e-06
1.65578e-06
8.5254e-06
3.34235e-07
3.34237e-07
3.34236e-07
3.342e-07
3.34216e-07
3.34218e-07
3.34217e-07
5.83604e-07
1.32519e-06
3.40512e-07
3.54637e-07
5.83705e-07
1.32476e-06
3.40532e-07
2.4239e-05
2.42384e-05
5.83589e-07
3.40514e-07
1.3251e-06
3.54645e-07
5.83693e-07
3.40534e-07
1.3247e-06
2.75736e-06
2.75796e-06
3.82618e-07
2.75718e-06
2.75778e-06
1.65579e-06
8.52481e-06
1.65625e-06
8.52407e-06
2.42387e-05
2.42382e-05
1.65558e-06
8.52614e-06
1.656e-06
8.52543e-06
3.34235e-07
3.34237e-07
3.34236e-07
3.342e-07
3.34216e-07
3.34219e-07
3.34217e-07
5.83718e-07
1.32566e-06
3.40514e-07
3.54646e-07
5.8382e-07
1.32502e-06
3.40534e-07
2.42394e-05
2.42386e-05
5.83709e-07
3.40516e-07
1.32558e-06
3.54654e-07
5.83806e-07
3.40536e-07
1.32498e-06
2.75803e-06
2.75862e-06
3.8266e-07
2.75753e-06
2.75812e-06
1.65581e-06
8.52483e-06
1.65633e-06
8.52409e-06
2.42387e-05
2.42382e-05
1.65561e-06
8.52618e-06
1.65607e-06
8.52545e-06
3.34236e-07
3.34238e-07
3.34237e-07
3.342e-07
3.34216e-07
3.34219e-07
3.34217e-07
5.83723e-07
1.32573e-06
3.40514e-07
3.54648e-07
5.83857e-07
1.32504e-06
3.40535e-07
2.42395e-05
2.42386e-05
5.83716e-07
3.40516e-07
1.32566e-06
3.54655e-07
5.83851e-07
3.40536e-07
1.32502e-06
2.75814e-06
2.75871e-06
3.82659e-07
2.75757e-06
2.75815e-06
1.65581e-06
8.52465e-06
1.65633e-06
8.52386e-06
2.42388e-05
2.42382e-05
1.65562e-06
8.52608e-06
1.65607e-06
8.52529e-06
3.34236e-07
3.34238e-07
3.34237e-07
3.342e-07
3.34217e-07
3.34219e-07
3.34217e-07
5.83723e-07
1.32573e-06
3.40518e-07
3.54649e-07
5.83856e-07
1.32504e-06
3.40537e-07
2.42395e-05
2.42386e-05
5.83716e-07
3.40516e-07
1.32567e-06
3.54655e-07
5.8385e-07
3.40536e-07
1.32502e-06
2.75814e-06
2.75871e-06
3.8266e-07
2.75757e-06
2.75816e-06
1.65581e-06
8.52456e-06
1.65633e-06
8.52383e-06
2.42388e-05
2.42382e-05
1.65561e-06
8.52592e-06
1.65609e-06
8.52513e-06
3.34236e-07
3.34238e-07
3.34237e-07
3.342e-07
3.34216e-07
3.34219e-07
3.34217e-07
5.83724e-07
1.32573e-06
3.40515e-07
3.54648e-07
5.83857e-07
1.32504e-06
3.40534e-07
2.42395e-05
2.42386e-05
5.83716e-07
3.40516e-07
1.32567e-06
3.54655e-07
5.8385e-07
3.40536e-07
1.32502e-06
2.75814e-06
2.75872e-06
3.8266e-07
2.75757e-06
2.75816e-06
1.65582e-06
8.52462e-06
1.65633e-06
8.52392e-06
2.42388e-05
2.42383e-05
1.65562e-06
8.52586e-06
1.65608e-06
8.52509e-06
3.34236e-07
3.34238e-07
3.34237e-07
3.342e-07
3.34216e-07
3.34219e-07
3.34217e-07
5.83723e-07
1.32573e-06
3.40514e-07
3.54647e-07
5.83856e-07
1.32504e-06
3.40534e-07
2.42395e-05
2.42386e-05
5.83716e-07
3.40516e-07
1.32567e-06
3.54655e-07
5.83849e-07
3.40535e-07
1.32502e-06
2.75814e-06
2.75873e-06
3.82659e-07
2.75757e-06
2.75817e-06
1.65582e-06
8.52466e-06
1.65634e-06
8.52394e-06
2.42388e-05
2.42383e-05
1.65561e-06
8.52584e-06
1.65608e-06
8.5251e-06
3.34236e-07
3.34238e-07
3.34237e-07
3.342e-07
3.34217e-07
3.34219e-07
3.34217e-07
5.83724e-07
1.32573e-06
3.40514e-07
3.54648e-07
5.83856e-07
1.32504e-06
3.40534e-07
2.42395e-05
2.42386e-05
5.83716e-07
3.40516e-07
1.32567e-06
3.54656e-07
5.8385e-07
3.40536e-07
1.32502e-06
2.75814e-06
2.75873e-06
3.8266e-07
2.75757e-06
2.75817e-06
1.65582e-06
8.52466e-06
1.65633e-06
8.52395e-06
2.42388e-05
2.42383e-05
1.65562e-06
8.52584e-06
1.65608e-06
8.5251e-06
3.34236e-07
3.34238e-07
3.34237e-07
3.342e-07
3.34216e-07
3.34218e-07
3.34217e-07
5.83724e-07
1.32573e-06
3.40514e-07
3.54648e-07
5.83857e-07
1.32504e-06
3.40534e-07
2.42395e-05
2.42386e-05
5.83716e-07
3.40516e-07
1.32567e-06
3.54655e-07
5.8385e-07
3.40536e-07
1.32502e-06
2.75815e-06
2.75873e-06
3.8266e-07
2.75758e-06
2.75817e-06
1.65581e-06
8.52468e-06
1.65633e-06
8.52395e-06
2.42388e-05
2.42383e-05
1.65561e-06
8.52584e-06
1.65609e-06
8.5251e-06
3.34236e-07
3.34238e-07
3.34237e-07
3.342e-07
3.34216e-07
3.34219e-07
3.34217e-07
5.83724e-07
1.32573e-06
3.40514e-07
3.54648e-07
5.83857e-07
1.32504e-06
3.40534e-07
2.42395e-05
2.42386e-05
5.83716e-07
3.40516e-07
1.32567e-06
3.54655e-07
5.8385e-07
3.40536e-07
1.32502e-06
2.75814e-06
2.75872e-06
3.82659e-07
2.75757e-06
2.75816e-06
1.65582e-06
8.52468e-06
1.65633e-06
8.52395e-06
2.42388e-05
2.42383e-05
1.65561e-06
8.52584e-06
1.65608e-06
8.52511e-06
3.34236e-07
3.34238e-07
3.34237e-07
3.342e-07
3.34217e-07
3.34218e-07
3.34217e-07
5.83723e-07
1.32573e-06
3.40514e-07
3.54647e-07
5.83856e-07
1.32504e-06
3.40534e-07
2.42395e-05
2.42386e-05
5.83716e-07
3.40519e-07
1.32567e-06
3.54655e-07
5.8385e-07
3.40538e-07
1.32502e-06
2.75814e-06
2.75872e-06
3.8266e-07
2.75757e-06
2.75817e-06
1.65581e-06
8.52468e-06
1.65633e-06
8.52395e-06
2.4239e-05
2.42385e-05
1.65561e-06
8.52585e-06
1.65607e-06
8.52511e-06
3.34236e-07
3.34238e-07
3.34237e-07
3.342e-07
3.34216e-07
3.34219e-07
3.34217e-07
5.83723e-07
1.32573e-06
3.40514e-07
3.54647e-07
5.83856e-07
1.32504e-06
3.40534e-07
2.42395e-05
2.42386e-05
5.83716e-07
3.40517e-07
1.32567e-06
3.54655e-07
5.8385e-07
3.40536e-07
1.32502e-06
2.75814e-06
2.75873e-06
3.8266e-07
2.75757e-06
2.75817e-06
1.65582e-06
8.52468e-06
1.65633e-06
8.52393e-06
2.4239e-05
2.42374e-05
1.65562e-06
8.52585e-06
1.65608e-06
8.52511e-06
3.34236e-07
3.34238e-07
3.34237e-07
3.342e-07
3.34216e-07
3.34219e-07
3.34217e-07
5.83723e-07
1.32573e-06
3.40516e-07
3.54648e-07
5.83856e-07
1.32504e-06
3.40535e-07
2.42395e-05
2.42386e-05
5.83715e-07
3.40516e-07
1.32567e-06
3.54655e-07
5.8385e-07
3.40536e-07
1.32502e-06
2.75814e-06
2.75873e-06
3.8266e-07
2.75757e-06
2.75816e-06
1.65582e-06
8.52458e-06
1.65634e-06
8.52386e-06
2.4238e-05
2.4238e-05
1.65563e-06
8.52585e-06
1.65609e-06
8.52511e-06
3.34236e-07
3.34238e-07
3.34237e-07
3.342e-07
3.34216e-07
3.34219e-07
3.34217e-07
5.83723e-07
1.32573e-06
3.40514e-07
3.54647e-07
5.83856e-07
1.32504e-06
3.40534e-07
2.42395e-05
2.42386e-05
5.83715e-07
3.40516e-07
1.32567e-06
3.54655e-07
5.83849e-07
3.40536e-07
1.32502e-06
2.75814e-06
2.75872e-06
3.82659e-07
2.75757e-06
2.75815e-06
1.65582e-06
8.52462e-06
1.65634e-06
8.52395e-06
2.42388e-05
2.4238e-05
1.65561e-06
8.52586e-06
1.65609e-06
8.5251e-06
3.34236e-07
3.34238e-07
3.34237e-07
3.342e-07
3.34217e-07
3.34219e-07
3.34217e-07
5.83724e-07
1.32573e-06
3.40516e-07
3.54647e-07
5.83856e-07
1.32504e-06
3.4054e-07
2.42395e-05
2.42386e-05
5.83717e-07
3.40516e-07
1.32567e-06
3.54655e-07
5.8385e-07
3.40536e-07
1.32502e-06
2.75814e-06
2.75872e-06
3.82659e-07
2.75757e-06
2.75815e-06
1.65582e-06
8.52469e-06
1.65634e-06
8.52398e-06
2.42385e-05
2.42379e-05
1.65561e-06
8.52581e-06
1.65608e-06
8.52515e-06
3.34236e-07
3.34238e-07
3.34237e-07
3.342e-07
3.34217e-07
3.34219e-07
3.34217e-07
5.83724e-07
1.32573e-06
3.40519e-07
3.54648e-07
5.83857e-07
1.32504e-06
3.40538e-07
2.42395e-05
2.42386e-05
5.83716e-07
3.40519e-07
1.32567e-06
3.54656e-07
5.8385e-07
3.40538e-07
1.32502e-06
2.75814e-06
2.75872e-06
3.8266e-07
2.75757e-06
2.75816e-06
1.65582e-06
8.52459e-06
1.65634e-06
8.52375e-06
2.42384e-05
2.42378e-05
1.65561e-06
8.52594e-06
1.65608e-06
8.52532e-06
3.34236e-07
3.34238e-07
3.34237e-07
3.342e-07
3.34216e-07
3.34218e-07
3.34217e-07
5.83724e-07
1.32573e-06
3.40515e-07
3.54648e-07
5.83857e-07
1.32504e-06
3.40534e-07
2.42395e-05
2.42386e-05
5.83716e-07
3.40516e-07
1.32567e-06
3.54655e-07
5.8385e-07
3.40536e-07
1.32502e-06
2.75814e-06
2.75873e-06
3.82659e-07
2.75757e-06
2.75817e-06
1.65582e-06
8.52448e-06
1.65634e-06
8.52372e-06
2.42384e-05
2.42379e-05
1.65561e-06
8.52611e-06
1.65608e-06
8.52542e-06
3.34236e-07
3.34238e-07
3.34237e-07
3.342e-07
3.34217e-07
3.34218e-07
3.34217e-07
5.83723e-07
1.32573e-06
3.40516e-07
3.54648e-07
5.83856e-07
1.32504e-06
3.40541e-07
2.42395e-05
2.42386e-05
5.83717e-07
3.40517e-07
1.32567e-06
3.54655e-07
5.8385e-07
3.40541e-07
1.32502e-06
2.75814e-06
2.75873e-06
3.82659e-07
2.75758e-06
2.75817e-06
1.65582e-06
8.52444e-06
1.65634e-06
8.52367e-06
2.42384e-05
2.42379e-05
1.65561e-06
8.52616e-06
1.65607e-06
8.52544e-06
3.34236e-07
3.34238e-07
3.34236e-07
3.342e-07
3.34217e-07
3.34219e-07
3.34217e-07
5.83724e-07
1.32573e-06
3.4052e-07
3.54648e-07
5.83856e-07
1.32504e-06
3.40538e-07
2.42395e-05
2.42386e-05
5.83716e-07
3.40521e-07
1.32567e-06
3.54656e-07
5.8385e-07
3.4054e-07
1.32502e-06
2.75814e-06
2.75872e-06
3.82659e-07
2.75757e-06
2.75815e-06
1.65582e-06
8.52441e-06
1.65633e-06
8.52368e-06
2.42384e-05
2.42379e-05
1.65561e-06
8.52619e-06
1.65608e-06
8.52544e-06
3.34237e-07
3.34238e-07
3.34237e-07
3.342e-07
3.34217e-07
3.34218e-07
3.34217e-07
5.83723e-07
1.32573e-06
3.40515e-07
3.54648e-07
5.83856e-07
1.32504e-06
3.40534e-07
2.42395e-05
2.42386e-05
5.83716e-07
3.40517e-07
1.32567e-06
3.54655e-07
5.8385e-07
3.40536e-07
1.32502e-06
2.75814e-06
2.75872e-06
3.8266e-07
2.75757e-06
2.75816e-06
1.65582e-06
8.52443e-06
1.65634e-06
8.52367e-06
2.42384e-05
2.42379e-05
1.65561e-06
8.52618e-06
1.65608e-06
8.52541e-06
3.34237e-07
3.34238e-07
3.34237e-07
3.342e-07
3.34217e-07
3.34219e-07
3.34217e-07
5.83723e-07
1.32573e-06
3.40514e-07
3.54648e-07
5.83856e-07
1.32504e-06
3.40534e-07
2.42395e-05
2.42386e-05
5.83717e-07
3.40518e-07
1.32567e-06
3.54656e-07
5.8385e-07
3.40538e-07
1.32502e-06
2.75814e-06
2.75874e-06
3.82659e-07
2.75757e-06
2.75818e-06
1.65582e-06
8.52441e-06
1.65634e-06
8.52367e-06
2.42384e-05
2.42379e-05
1.65562e-06
8.52617e-06
1.65608e-06
8.52541e-06
3.34236e-07
3.34238e-07
3.34237e-07
3.342e-07
3.34216e-07
3.34219e-07
3.34217e-07
5.83723e-07
1.32573e-06
3.40514e-07
3.54648e-07
5.83856e-07
1.32504e-06
3.40537e-07
2.42395e-05
2.42386e-05
5.83718e-07
3.40517e-07
1.32567e-06
3.54655e-07
5.83852e-07
3.40536e-07
1.32502e-06
2.75814e-06
2.75873e-06
3.8266e-07
2.75757e-06
2.75817e-06
1.65582e-06
8.52441e-06
1.65634e-06
8.52366e-06
2.42384e-05
2.42379e-05
1.65562e-06
8.52616e-06
1.65609e-06
8.52543e-06
3.34236e-07
3.34238e-07
3.34237e-07
3.342e-07
3.34216e-07
3.34219e-07
3.34217e-07
5.83723e-07
1.32573e-06
3.40517e-07
3.54648e-07
5.83856e-07
1.32504e-06
3.40537e-07
2.42395e-05
2.42386e-05
5.83719e-07
3.40516e-07
1.32567e-06
3.54655e-07
5.83852e-07
3.40536e-07
1.32502e-06
2.75814e-06
2.75872e-06
3.8266e-07
2.75758e-06
2.75816e-06
1.65582e-06
8.5244e-06
1.65634e-06
8.52366e-06
2.42384e-05
2.42379e-05
1.65561e-06
8.52616e-06
1.65608e-06
8.52542e-06
3.34236e-07
3.34238e-07
3.34237e-07
3.342e-07
3.34217e-07
3.34218e-07
3.34217e-07
5.83724e-07
1.32573e-06
3.40514e-07
3.54648e-07
5.83856e-07
1.32504e-06
3.40534e-07
2.42395e-05
2.42386e-05
5.83719e-07
3.40516e-07
1.32567e-06
3.54655e-07
5.83853e-07
3.40536e-07
1.32502e-06
2.75815e-06
2.75873e-06
3.8266e-07
2.75758e-06
2.75817e-06
1.65601e-06
8.52441e-06
1.65634e-06
8.52364e-06
2.42384e-05
2.4238e-05
1.65582e-06
8.52617e-06
1.65607e-06
8.52543e-06
3.34235e-07
3.34231e-07
3.3423e-07
5.83734e-07
1.32573e-06
3.40515e-07
3.54643e-07
5.83856e-07
1.32504e-06
3.40534e-07
2.42395e-05
3.4053e-07
1.32567e-06
5.83853e-07
2.75814e-06
2.75873e-06
5.35262e-07
5.35992e-07
5.35989e-07
1.09168e-05
5.81344e-07
1.09181e-05
5.81336e-07
5.28199e-07
2.43169e-06
2.43263e-06
5.40836e-07
5.40832e-07
5.34573e-07
5.3552e-07
5.33636e-07
5.35652e-07
5.34573e-07
5.3552e-07
5.33635e-07
5.35652e-07
5.30398e-07
3.47215e-06
5.68202e-07
8.21329e-07
5.30398e-07
3.47218e-06
5.68201e-07
8.21308e-07
5.29521e-07
5.28375e-07
1.17041e-06
5.09613e-07
5.32663e-07
5.28361e-07
5.19196e-07
5.29521e-07
5.28375e-07
1.17055e-06
5.09613e-07
5.32662e-07
5.2836e-07
5.19199e-07
5.35262e-07
5.35991e-07
5.35989e-07
1.0917e-05
5.81322e-07
5.28199e-07
2.43218e-06
2.43231e-06
5.40836e-07
5.40832e-07
1.09177e-05
5.81317e-07
5.34573e-07
5.3552e-07
5.33636e-07
5.35652e-07
5.34574e-07
5.3552e-07
5.35652e-07
5.33636e-07
5.30398e-07
3.47249e-06
5.682e-07
8.21468e-07
5.29521e-07
5.28375e-07
1.17067e-06
5.09613e-07
5.32662e-07
5.28361e-07
5.19205e-07
5.30398e-07
3.47258e-06
5.68198e-07
8.21385e-07
5.29521e-07
5.28375e-07
5.09613e-07
1.17058e-06
5.2836e-07
5.32661e-07
5.19199e-07
5.3566e-07
5.356e-07
5.35652e-07
5.35652e-07
5.3566e-07
5.356e-07
5.35652e-07
5.35652e-07
5.3566e-07
5.356e-07
5.35653e-07
5.35653e-07
5.28444e-07
5.28383e-07
5.09745e-07
5.09745e-07
5.2842e-07
5.28419e-07
5.09799e-07
5.28445e-07
5.28381e-07
5.09741e-07
5.09742e-07
5.28418e-07
5.28418e-07
5.09801e-07
5.28445e-07
5.28381e-07
5.09741e-07
5.09742e-07
5.28418e-07
5.28418e-07
5.09801e-07
5.28445e-07
5.28381e-07
5.09741e-07
5.09741e-07
5.28418e-07
5.28418e-07
5.09802e-07
5.34573e-07
5.3552e-07
5.35652e-07
5.33636e-07
5.29521e-07
5.28374e-07
1.17062e-06
5.09617e-07
5.32661e-07
5.28362e-07
5.19203e-07
5.30398e-07
3.47239e-06
5.68194e-07
8.214e-07
5.29521e-07
5.28375e-07
5.09613e-07
1.17048e-06
5.28361e-07
5.32661e-07
5.19199e-07
5.30398e-07
3.47252e-06
5.68198e-07
8.21341e-07
5.35262e-07
5.35989e-07
5.35988e-07
1.09182e-05
5.81333e-07
5.28199e-07
2.43247e-06
2.43231e-06
5.40832e-07
5.40829e-07
1.09181e-05
5.81312e-07
5.34574e-07
5.3552e-07
5.35652e-07
5.33636e-07
5.29521e-07
5.28374e-07
5.09617e-07
1.17055e-06
5.28362e-07
5.3266e-07
5.19202e-07
5.29521e-07
5.28375e-07
5.09613e-07
1.17067e-06
5.28361e-07
5.32662e-07
5.19205e-07
5.30398e-07
3.47254e-06
5.68192e-07
8.21463e-07
5.30398e-07
3.47255e-06
5.68203e-07
8.21551e-07
5.28199e-07
2.43211e-06
2.43275e-06
5.4083e-07
5.40831e-07
1.0918e-05
5.81316e-07
1.09182e-05
5.8133e-07
1.26055e-05
1.65934e-05
1.2607e-05
1.6596e-05
2.51997e-06
2.52071e-06
4.84194e-07
2.38083e-06
2.38156e-06
2.05217e-05
1.76979e-05
2.05252e-05
1.77009e-05
4.79303e-07
2.30884e-06
2.3095e-06
2.34209e-06
2.34286e-06
1.10962e-06
3.8808e-06
9.31933e-07
4.60373e-06
5.43464e-07
1.22265e-06
4.95568e-07
4.85523e-07
5.25097e-07
1.21096e-06
4.82259e-07
5.43463e-07
1.22282e-06
4.95568e-07
4.8553e-07
5.25104e-07
1.21119e-06
4.82259e-07
1.16077e-06
5.40521e-06
4.81027e-06
1.28307e-06
1.16088e-06
5.40532e-06
4.81029e-06
1.28307e-06
5.50898e-07
4.74301e-07
1.19196e-06
4.57861e-07
1.20495e-06
4.69692e-07
5.66845e-07
5.50899e-07
4.74309e-07
1.19213e-06
4.57861e-07
1.20512e-06
4.69692e-07
5.66842e-07
2.52045e-06
2.52018e-06
4.84193e-07
2.38141e-06
2.38097e-06
1.26062e-05
1.65943e-05
2.05231e-05
1.76996e-05
4.79302e-07
2.30935e-06
2.30905e-06
2.34262e-06
2.34243e-06
2.05227e-05
1.76989e-05
5.43497e-07
1.22291e-06
4.95568e-07
4.85528e-07
5.25099e-07
1.21123e-06
4.8226e-07
1.10984e-06
3.88138e-06
9.31704e-07
4.60447e-06
5.43494e-07
4.95568e-07
1.22287e-06
4.85531e-07
5.25086e-07
4.8226e-07
1.21123e-06
1.16081e-06
5.40569e-06
4.8106e-06
1.28323e-06
5.50898e-07
4.74307e-07
1.19215e-06
4.57862e-07
1.20513e-06
4.69692e-07
5.66869e-07
1.16078e-06
5.40623e-06
4.81111e-06
1.28322e-06
5.50898e-07
4.74311e-07
4.57861e-07
1.1922e-06
4.69693e-07
1.20518e-06
5.66874e-07
1.10979e-06
3.88084e-06
9.3178e-07
4.604e-06
5.43479e-07
4.95568e-07
1.22273e-06
4.85524e-07
5.25071e-07
4.82259e-07
1.21108e-06
1.10979e-06
3.88128e-06
9.31621e-07
4.60425e-06
5.50893e-07
4.74295e-07
1.19196e-06
4.57865e-07
1.20498e-06
4.69688e-07
5.66853e-07
1.16081e-06
5.40539e-06
4.81007e-06
1.28315e-06
5.50891e-07
4.74301e-07
4.57861e-07
1.19172e-06
4.69692e-07
1.2049e-06
5.66847e-07
1.16072e-06
5.40504e-06
4.8109e-06
1.28312e-06
2.52063e-06
2.52013e-06
4.84196e-07
2.38155e-06
2.38081e-06
1.2607e-05
1.65952e-05
2.05259e-05
1.77016e-05
4.79303e-07
2.30956e-06
2.30902e-06
2.34278e-06
2.3423e-06
2.0524e-05
1.77002e-05
5.4351e-07
4.95568e-07
1.22291e-06
4.85529e-07
5.25074e-07
4.82259e-07
1.21122e-06
1.11004e-06
3.88124e-06
9.31564e-07
4.60429e-06
1.11011e-06
3.88112e-06
9.31683e-07
4.60419e-06
5.50889e-07
4.74296e-07
4.57866e-07
1.192e-06
4.69689e-07
1.20502e-06
5.66875e-07
5.50889e-07
4.74306e-07
4.57862e-07
1.19213e-06
4.69692e-07
1.20511e-06
5.66881e-07
1.16056e-06
5.40601e-06
4.81085e-06
1.28325e-06
1.16059e-06
5.40598e-06
4.81058e-06
1.28327e-06
1.26066e-05
1.65951e-05
1.26071e-05
1.65959e-05
4.79303e-07
2.30895e-06
2.30947e-06
2.34201e-06
2.34281e-06
2.05226e-05
1.76996e-05
2.05249e-05
1.77009e-05
2.1292e-05
2.3101e-05
2.12957e-05
2.31052e-05
2.31454e-06
2.31523e-06
4.53485e-07
2.35797e-06
2.35887e-06
2.44662e-05
2.35444e-05
2.44695e-05
2.3548e-05
4.50874e-07
2.44743e-06
2.44861e-06
2.38536e-06
2.38568e-06
1.43467e-06
5.59388e-06
1.32854e-06
6.13364e-06
5.87474e-07
1.19314e-06
4.4653e-07
4.44261e-07
5.738e-07
1.20242e-06
4.35612e-07
5.87475e-07
1.19329e-06
4.46531e-07
4.44269e-07
5.73795e-07
1.2026e-06
4.35612e-07
1.47527e-06
6.77305e-06
6.3035e-06
1.55962e-06
1.47523e-06
6.77315e-06
6.30337e-06
1.5596e-06
5.93658e-07
4.35185e-07
1.22828e-06
4.1571e-07
1.21013e-06
4.25274e-07
6.0375e-07
5.93647e-07
4.35194e-07
1.22833e-06
4.1571e-07
1.21028e-06
4.25275e-07
6.03746e-07
2.31501e-06
2.31471e-06
4.5348e-07
2.35867e-06
2.35766e-06
2.1293e-05
2.31013e-05
2.44669e-05
2.35459e-05
4.50872e-07
2.44839e-06
2.44733e-06
2.38553e-06
2.38576e-06
2.44658e-05
2.35449e-05
5.87509e-07
1.19335e-06
4.4653e-07
4.44264e-07
5.73802e-07
1.20259e-06
4.35613e-07
1.43511e-06
5.59491e-06
1.32861e-06
6.1347e-06
5.87516e-07
4.46532e-07
1.19337e-06
4.44272e-07
5.73808e-07
4.35613e-07
1.20266e-06
1.47494e-06
6.77374e-06
6.30431e-06
1.56003e-06
5.93663e-07
4.35189e-07
1.22839e-06
4.15711e-07
1.21029e-06
4.25275e-07
6.03762e-07
1.47495e-06
6.77457e-06
6.30447e-06
1.56005e-06
5.9366e-07
4.35199e-07
4.15712e-07
1.22847e-06
4.25277e-07
1.21041e-06
6.03769e-07
1.43483e-06
5.59394e-06
1.32851e-06
6.13329e-06
5.87486e-07
4.4653e-07
1.19286e-06
4.44258e-07
5.73795e-07
4.35612e-07
1.2022e-06
1.43471e-06
5.59344e-06
1.32862e-06
6.13284e-06
5.93646e-07
4.35171e-07
1.22793e-06
4.15711e-07
1.20996e-06
4.25268e-07
6.03748e-07
1.47512e-06