/*--------------------------------*- C++ -*----------------------------------*\
| =========                 |                                                 |
| \\      /  F ield         | OpenFOAM: The Open Source CFD Toolbox           |
|  \\    /   O peration     | Version:  v1912                                 |
|   \\  /    A nd           | Website:  www.openfoam.com                      |
|    \\/     M anipulation  |                                                 |
\*---------------------------------------------------------------------------*/
FoamFile
{
    version     2.0;
    format      ascii;
    class       volScalarField;
    location    "20";
    object      k;
}
// * * * * * * * * * * * * * * * * * * * * * * * * * * * * * * * * * * * * * //

dimensions      [0 2 -2 0 0 0 0];


internalField   nonuniform List<scalar> 
57100
(
3.58934e-05
3.58914e-05
3.58914e-05
3.59961e-05
3.39339e-05
3.38926e-05
3.38926e-05
3.39647e-05
3.21695e-05
3.20134e-05
3.20133e-05
3.1956e-05
3.04681e-05
3.01718e-05
3.01717e-05
2.99899e-05
2.92524e-05
2.88342e-05
2.88341e-05
2.83729e-05
2.90027e-05
2.86833e-05
2.86832e-05
2.82652e-05
2.89918e-05
2.86945e-05
2.86944e-05
2.83212e-05
2.89924e-05
2.86997e-05
2.86996e-05
2.83351e-05
2.89924e-05
2.87018e-05
2.87017e-05
2.83363e-05
2.89924e-05
2.87019e-05
2.87018e-05
2.83362e-05
2.89924e-05
2.8702e-05
2.87019e-05
2.83362e-05
2.89924e-05
2.87019e-05
2.87019e-05
2.83362e-05
2.89924e-05
2.8702e-05
2.87018e-05
2.83362e-05
2.89924e-05
2.87019e-05
2.87019e-05
2.83362e-05
2.89924e-05
2.87019e-05
2.87018e-05
2.83362e-05
2.89924e-05
2.87019e-05
2.87019e-05
2.83362e-05
2.89924e-05
2.87019e-05
2.87018e-05
2.83362e-05
2.89924e-05
2.87019e-05
2.87018e-05
2.83362e-05
2.89924e-05
2.87019e-05
2.87019e-05
2.83362e-05
2.89924e-05
2.8702e-05
2.87019e-05
2.83362e-05
2.89924e-05
2.87019e-05
2.87018e-05
2.83362e-05
2.89924e-05
2.8702e-05
2.87019e-05
2.83362e-05
2.89924e-05
2.87019e-05
2.87018e-05
2.83362e-05
2.89924e-05
2.87019e-05
2.87018e-05
2.83362e-05
2.89924e-05
2.87019e-05
2.87019e-05
2.83362e-05
2.89924e-05
2.87019e-05
2.87018e-05
2.83362e-05
2.89924e-05
2.8702e-05
2.87019e-05
2.83362e-05
2.89924e-05
2.87019e-05
2.8702e-05
2.83362e-05
2.89924e-05
2.8702e-05
2.87018e-05
2.83362e-05
2.89924e-05
2.87018e-05
2.87026e-05
2.83362e-05
3.63063e-05
3.62909e-05
3.62908e-05
3.63063e-05
3.62909e-05
3.62908e-05
3.64236e-05
3.64235e-05
3.64235e-05
3.64234e-05
3.62909e-05
3.62908e-05
3.63063e-05
3.62909e-05
3.62908e-05
3.63064e-05
3.59961e-05
3.42681e-05
3.58916e-05
3.58916e-05
3.43791e-05
3.4379e-05
3.59961e-05
3.42681e-05
3.58916e-05
3.58916e-05
3.43791e-05
3.4379e-05
3.58916e-05
3.43792e-05
3.43791e-05
3.59961e-05
3.42681e-05
3.58916e-05
3.43792e-05
3.43791e-05
3.4268e-05
3.39647e-05
3.2257e-05
3.38926e-05
3.38926e-05
3.24614e-05
3.24612e-05
3.39647e-05
3.22571e-05
3.38926e-05
3.38926e-05
3.24614e-05
3.24612e-05
3.38927e-05
3.2462e-05
3.24613e-05
3.39647e-05
3.2257e-05
3.38927e-05
3.2462e-05
3.24613e-05
3.22572e-05
3.19563e-05
3.02864e-05
3.20136e-05
3.20136e-05
3.06562e-05
3.0656e-05
3.19563e-05
3.02866e-05
3.20137e-05
3.20135e-05
3.06563e-05
3.06559e-05
3.20136e-05
3.06566e-05
3.06561e-05
3.19562e-05
3.02864e-05
3.20137e-05
3.06565e-05
3.06562e-05
3.02863e-05
2.99898e-05
2.85025e-05
3.01717e-05
3.01716e-05
2.90223e-05
2.90221e-05
2.99899e-05
2.85026e-05
3.01719e-05
3.01716e-05
2.90224e-05
2.9022e-05
3.01718e-05
2.90228e-05
2.90222e-05
2.99898e-05
2.85024e-05
3.01719e-05
2.90227e-05
2.90224e-05
2.85023e-05
2.83746e-05
2.8261e-05
2.88344e-05
2.88342e-05
2.86827e-05
2.86827e-05
2.83747e-05
2.82609e-05
2.88346e-05
2.88342e-05
2.86829e-05
2.86825e-05
2.88344e-05
2.86833e-05
2.86827e-05
2.83745e-05
2.82607e-05
2.88346e-05
2.86832e-05
2.86829e-05
2.82599e-05
2.8267e-05
2.83202e-05
2.86837e-05
2.86837e-05
2.86922e-05
2.86922e-05
2.82669e-05
2.832e-05
2.86839e-05
2.86836e-05
2.86924e-05
2.8692e-05
2.86838e-05
2.86928e-05
2.86924e-05
2.82667e-05
2.83198e-05
2.8684e-05
2.86927e-05
2.86926e-05
2.83221e-05
2.832e-05
2.83346e-05
2.86951e-05
2.86951e-05
2.86985e-05
2.86985e-05
2.832e-05
2.83342e-05
2.86953e-05
2.86949e-05
2.86987e-05
2.86983e-05
2.86955e-05
2.86989e-05
2.86988e-05
2.83198e-05
2.8334e-05
2.86957e-05
2.86988e-05
2.8699e-05
2.83376e-05
2.83346e-05
2.83412e-05
2.87006e-05
2.87006e-05
2.87016e-05
2.87017e-05
2.83339e-05
2.8341e-05
2.87007e-05
2.87004e-05
2.87018e-05
2.87015e-05
2.87009e-05
2.87018e-05
2.87015e-05
2.83337e-05
2.83408e-05
2.87011e-05
2.87017e-05
2.87017e-05
2.83403e-05
2.83421e-05
2.83416e-05
2.87032e-05
2.87033e-05
2.87018e-05
2.87019e-05
2.83419e-05
2.83416e-05
2.87034e-05
2.87032e-05
2.8702e-05
2.87017e-05
2.87032e-05
2.8702e-05
2.87016e-05
2.83417e-05
2.83414e-05
2.87034e-05
2.8702e-05
2.87018e-05
2.83402e-05
2.83424e-05
2.83416e-05
2.8703e-05
2.8703e-05
2.87019e-05
2.87019e-05
2.83424e-05
2.83416e-05
2.87031e-05
2.87029e-05
2.8702e-05
2.87017e-05
2.87027e-05
2.87022e-05
2.87016e-05
2.83422e-05
2.83414e-05
2.87029e-05
2.87022e-05
2.87018e-05
2.83402e-05
2.83425e-05
2.83417e-05
2.8703e-05
2.87031e-05
2.87019e-05
2.87019e-05
2.83424e-05
2.83415e-05
2.87032e-05
2.87029e-05
2.8702e-05
2.87017e-05
2.87027e-05
2.87021e-05
2.87016e-05
2.83422e-05
2.83414e-05
2.87029e-05
2.8702e-05
2.87018e-05
2.83402e-05
2.83425e-05
2.83417e-05
2.8703e-05
2.87031e-05
2.87019e-05
2.87019e-05
2.83423e-05
2.83416e-05
2.87032e-05
2.87029e-05
2.87021e-05
2.87017e-05
2.87027e-05
2.87023e-05
2.87016e-05
2.83422e-05
2.83414e-05
2.87029e-05
2.8702e-05
2.87018e-05
2.83402e-05
2.83426e-05
2.83417e-05
2.8703e-05
2.8703e-05
2.87019e-05
2.87019e-05
2.83423e-05
2.83415e-05
2.87032e-05
2.87029e-05
2.87021e-05
2.87017e-05
2.87027e-05
2.87021e-05
2.87016e-05
2.83422e-05
2.83414e-05
2.87029e-05
2.87021e-05
2.87018e-05
2.83402e-05
2.83425e-05
2.83417e-05
2.8703e-05
2.8703e-05
2.87019e-05
2.87019e-05
2.83423e-05
2.83416e-05
2.87032e-05
2.87029e-05
2.8702e-05
2.87017e-05
2.87027e-05
2.87021e-05
2.87016e-05
2.83422e-05
2.83414e-05
2.87029e-05
2.8702e-05
2.87018e-05
2.83402e-05
2.83425e-05
2.83417e-05
2.8703e-05
2.8703e-05
2.87019e-05
2.87019e-05
2.83423e-05
2.83416e-05
2.87032e-05
2.87029e-05
2.87021e-05
2.87018e-05
2.87027e-05
2.87021e-05
2.87016e-05
2.83422e-05
2.83414e-05
2.87029e-05
2.87021e-05
2.87018e-05
2.83402e-05
2.83425e-05
2.83417e-05
2.8703e-05
2.8703e-05
2.87019e-05
2.87019e-05
2.83424e-05
2.83416e-05
2.87032e-05
2.87029e-05
2.87021e-05
2.87017e-05
2.87027e-05
2.87021e-05
2.87016e-05
2.83422e-05
2.83414e-05
2.87029e-05
2.8702e-05
2.87018e-05
2.83402e-05
2.83425e-05
2.83417e-05
2.8703e-05
2.87031e-05
2.87019e-05
2.87019e-05
2.83424e-05
2.83415e-05
2.87032e-05
2.87029e-05
2.8702e-05
2.87017e-05
2.87027e-05
2.87021e-05
2.87016e-05
2.83422e-05
2.83414e-05
2.87029e-05
2.8702e-05
2.87018e-05
2.83402e-05
2.83425e-05
2.83417e-05
2.8703e-05
2.8703e-05
2.87019e-05
2.87019e-05
2.83423e-05
2.83416e-05
2.87032e-05
2.87029e-05
2.8702e-05
2.87017e-05
2.87027e-05
2.87021e-05
2.87016e-05
2.83422e-05
2.83414e-05
2.87029e-05
2.87021e-05
2.87018e-05
2.83402e-05
2.83425e-05
2.83417e-05
2.8703e-05
2.87031e-05
2.87019e-05
2.87019e-05
2.83423e-05
2.83416e-05
2.87032e-05
2.87029e-05
2.8702e-05
2.87018e-05
2.87027e-05
2.87022e-05
2.87016e-05
2.83422e-05
2.83414e-05
2.87029e-05
2.87021e-05
2.87018e-05
2.83402e-05
2.83425e-05
2.83417e-05
2.8703e-05
2.87031e-05
2.87019e-05
2.87019e-05
2.83424e-05
2.83416e-05
2.87032e-05
2.87029e-05
2.87021e-05
2.87018e-05
2.87027e-05
2.87021e-05
2.87016e-05
2.83422e-05
2.83414e-05
2.87029e-05
2.8702e-05
2.87018e-05
2.83402e-05
2.83425e-05
2.83417e-05
2.8703e-05
2.87031e-05
2.87019e-05
2.87019e-05
2.83424e-05
2.83416e-05
2.87032e-05
2.87029e-05
2.8702e-05
2.87017e-05
2.87027e-05
2.87023e-05
2.87016e-05
2.83422e-05
2.83414e-05
2.87029e-05
2.87022e-05
2.87018e-05
2.83402e-05
2.83425e-05
2.83416e-05
2.8703e-05
2.8703e-05
2.87019e-05
2.87019e-05
2.83424e-05
2.83416e-05
2.87032e-05
2.87029e-05
2.8702e-05
2.87017e-05
2.87027e-05
2.87021e-05
2.87016e-05
2.83422e-05
2.83414e-05
2.87029e-05
2.8702e-05
2.87018e-05
2.83402e-05
2.83425e-05
2.83417e-05
2.8703e-05
2.87031e-05
2.87019e-05
2.87019e-05
2.83424e-05
2.83416e-05
2.87032e-05
2.87029e-05
2.87021e-05
2.87018e-05
2.87027e-05
2.87022e-05
2.87016e-05
2.83422e-05
2.83414e-05
2.87029e-05
2.8702e-05
2.87018e-05
2.83402e-05
2.83425e-05
2.83416e-05
2.8703e-05
2.8703e-05
2.87019e-05
2.87019e-05
2.83424e-05
2.83416e-05
2.87032e-05
2.87029e-05
2.87021e-05
2.87018e-05
2.87027e-05
2.87021e-05
2.87016e-05
2.83422e-05
2.83414e-05
2.87029e-05
2.87021e-05
2.87018e-05
2.83402e-05
2.83425e-05
2.83416e-05
2.8703e-05
2.8703e-05
2.87018e-05
2.87019e-05
2.83424e-05
2.83416e-05
2.87032e-05
2.87029e-05
2.87021e-05
2.87017e-05
2.87027e-05
2.87021e-05
2.87016e-05
2.83422e-05
2.83414e-05
2.87029e-05
2.8702e-05
2.87018e-05
2.83402e-05
2.83425e-05
2.83416e-05
2.8703e-05
2.8703e-05
2.87018e-05
2.87019e-05
2.83424e-05
2.83416e-05
2.87032e-05
2.87029e-05
2.8702e-05
2.87018e-05
2.87027e-05
2.87022e-05
2.87016e-05
2.83422e-05
2.83414e-05
2.87029e-05
2.87021e-05
2.87018e-05
2.83402e-05
2.83424e-05
2.83416e-05
2.87029e-05
2.8703e-05
2.87018e-05
2.87019e-05
2.83424e-05
2.83416e-05
2.87032e-05
2.87029e-05
2.87021e-05
2.87017e-05
2.87027e-05
2.87021e-05
2.87016e-05
2.83422e-05
2.83414e-05
2.87029e-05
2.87022e-05
2.87018e-05
2.83402e-05
2.83424e-05
2.83416e-05
2.87029e-05
2.87031e-05
2.87018e-05
2.87019e-05
2.83424e-05
2.83416e-05
2.87032e-05
2.87029e-05
2.8702e-05
2.87018e-05
2.87027e-05
2.87022e-05
2.87016e-05
2.83422e-05
2.83414e-05
2.87029e-05
2.8702e-05
2.87018e-05
2.83402e-05
2.83424e-05
2.83416e-05
2.87029e-05
2.87031e-05
2.87018e-05
2.87019e-05
2.83424e-05
2.83416e-05
2.87032e-05
2.87029e-05
2.87021e-05
2.87017e-05
2.87027e-05
2.8702e-05
2.87016e-05
2.83422e-05
2.83414e-05
2.87029e-05
2.87022e-05
2.87018e-05
2.83402e-05
2.83425e-05
2.87029e-05
2.8703e-05
2.83423e-05
2.87031e-05
2.87025e-05
2.87024e-05
2.83417e-05
2.87025e-05
3.73773e-05
3.73764e-05
3.73769e-05
3.73769e-05
3.73699e-05
3.73777e-05
3.73044e-05
3.73767e-05
3.73699e-05
3.73777e-05
3.73767e-05
3.73044e-05
3.73739e-05
3.72959e-05
3.72959e-05
3.58854e-05
4.08728e-05
3.66035e-05
4.51313e-05
5.51076e-05
6.48776e-05
3.58856e-05
4.0872e-05
3.66038e-05
4.5131e-05
3.58936e-05
3.58936e-05
3.58937e-05
3.44051e-05
3.44049e-05
3.44049e-05
3.44049e-05
3.52754e-05
3.56272e-05
3.58929e-05
3.53764e-05
3.60481e-05
3.42415e-05
3.53807e-05
5.51098e-05
6.48805e-05
3.52753e-05
3.5893e-05
3.56272e-05
3.53765e-05
3.60481e-05
3.53807e-05
3.42421e-05
3.65849e-05
3.65853e-05
3.52784e-05
3.40849e-05
3.40842e-05
3.39809e-05
5.13582e-05
3.46734e-05
5.46052e-05
7.6567e-05
8.08442e-05
3.39825e-05
5.13592e-05
3.46736e-05
5.46054e-05
3.39342e-05
3.39342e-05
3.39343e-05
3.25796e-05
3.25793e-05
3.25793e-05
3.25792e-05
3.30562e-05
3.24424e-05
3.39332e-05
3.34077e-05
3.38946e-05
3.15789e-05
3.34655e-05
7.65697e-05
8.08467e-05
3.30561e-05
3.39332e-05
3.24414e-05
3.34077e-05
3.38944e-05
3.34654e-05
3.15803e-05
3.17104e-05
3.17093e-05
3.32617e-05
3.09354e-05
3.09337e-05
3.22572e-05
5.9181e-05
3.29179e-05
6.1409e-05
8.44159e-05
8.50568e-05
3.22593e-05
5.91826e-05
3.29165e-05
6.14081e-05
3.21699e-05
3.21699e-05
3.217e-05
3.09096e-05
3.0909e-05
3.0909e-05
3.0909e-05
3.07856e-05
3.04815e-05
3.21462e-05
3.15754e-05
3.16371e-05
2.98687e-05
3.17332e-05
8.44193e-05
8.50592e-05
3.07854e-05
3.21462e-05
3.04808e-05
3.15753e-05
3.16367e-05
3.17332e-05
2.98711e-05
3.02253e-05
3.0224e-05
3.12748e-05
2.99767e-05
2.99753e-05
3.07241e-05
6.43994e-05
3.13281e-05
6.56168e-05
8.46344e-05
8.38545e-05
3.07252e-05
6.43983e-05
3.13268e-05
6.56172e-05
3.04687e-05
3.04687e-05
3.04687e-05
2.94414e-05
2.94416e-05
2.94415e-05
2.94415e-05
2.8558e-05
2.91203e-05
3.04115e-05
2.97102e-05
2.94089e-05
2.85284e-05
2.99842e-05
8.4636e-05
8.38556e-05
2.85577e-05
3.04114e-05
2.91201e-05
2.97101e-05
2.94085e-05
2.99841e-05
2.85294e-05
2.99029e-05
2.99022e-05
2.92749e-05
2.99445e-05
2.99441e-05
2.98238e-05
6.69834e-05
2.98447e-05
6.76037e-05
8.33039e-05
8.33348e-05
2.98238e-05
6.69853e-05
2.98443e-05
6.76063e-05
2.92527e-05
2.92526e-05
2.92526e-05
2.90231e-05
2.90228e-05
2.90228e-05
2.90227e-05
2.7445e-05
2.82925e-05
2.91303e-05
2.87345e-05
2.75507e-05
2.87686e-05
2.90097e-05
8.33046e-05
8.33331e-05
2.74449e-05
2.91302e-05
2.8293e-05
2.87344e-05
2.75506e-05
2.90096e-05
2.87703e-05
3.06808e-05
3.06808e-05
2.82462e-05
3.1818e-05
3.18182e-05
3.00411e-05
6.80208e-05
2.99955e-05
6.80397e-05
8.3421e-05
8.34283e-05
3.00406e-05
6.80244e-05
2.99948e-05
6.8043e-05
2.90037e-05
2.90037e-05
2.90036e-05
2.89917e-05
2.89915e-05
2.89915e-05
2.89914e-05
2.7547e-05
2.94981e-05
2.88881e-05
2.86879e-05
2.75128e-05
2.96189e-05
2.88841e-05
8.34187e-05
8.34261e-05
2.75468e-05
2.8888e-05
2.94968e-05
2.86878e-05
2.75127e-05
2.8884e-05
2.96185e-05
3.29275e-05
3.29279e-05
2.83025e-05
3.3101e-05
3.31016e-05
3.00807e-05
6.80443e-05
3.00744e-05
6.80413e-05
8.34345e-05
8.34339e-05
3.00797e-05
6.80475e-05
3.00737e-05
6.80444e-05
2.89931e-05
2.8993e-05
2.8993e-05
2.89925e-05
2.89926e-05
2.89925e-05
2.89925e-05
2.75783e-05
2.96849e-05
2.88833e-05
2.86976e-05
2.75715e-05
2.96933e-05
2.88852e-05
8.34317e-05
8.34303e-05
2.75781e-05
2.88832e-05
2.96839e-05
2.86975e-05
2.75713e-05
2.88851e-05
2.96925e-05
3.31829e-05
3.31834e-05
2.83332e-05
3.31881e-05
3.31886e-05
3.00955e-05
6.80453e-05
3.00946e-05
6.80413e-05
8.34357e-05
8.34346e-05
3.00944e-05
6.80484e-05
3.00931e-05
6.80446e-05
2.89936e-05
2.89936e-05
2.89935e-05
2.89925e-05
2.89929e-05
2.89929e-05
2.89928e-05
2.75925e-05
2.97076e-05
2.88849e-05
2.87013e-05
2.75874e-05
2.97074e-05
2.88861e-05
8.34328e-05
8.34307e-05
2.75922e-05
2.88849e-05
2.97071e-05
2.87013e-05
2.75871e-05
2.88862e-05
2.97074e-05
3.31954e-05
3.31957e-05
2.83404e-05
3.31952e-05
3.31955e-05
3.00964e-05
6.80454e-05
3.00978e-05
6.80414e-05
8.34359e-05
8.34348e-05
3.00958e-05
6.80486e-05
3.00972e-05
6.80447e-05
2.89939e-05
2.89939e-05
2.89937e-05
2.89925e-05
2.89929e-05
2.89929e-05
2.89927e-05
2.75938e-05
2.97106e-05
2.88851e-05
2.87034e-05
2.75928e-05
2.97083e-05
2.88862e-05
8.34329e-05
8.34308e-05
2.75939e-05
2.88851e-05
2.97108e-05
2.87033e-05
2.75929e-05
2.88862e-05
2.97088e-05
3.31974e-05
3.31976e-05
2.83405e-05
3.31959e-05
3.31961e-05
3.00963e-05
6.80447e-05
3.00977e-05
6.80404e-05
8.3436e-05
8.34348e-05
3.00958e-05
6.80483e-05
3.00973e-05
6.8044e-05
2.89939e-05
2.89939e-05
2.89937e-05
2.89925e-05
2.89929e-05
2.89929e-05
2.89927e-05
2.75938e-05
2.97106e-05
2.8885e-05
2.8703e-05
2.75928e-05
2.97082e-05
2.88861e-05
8.3433e-05
8.34309e-05
2.75939e-05
2.8885e-05
2.97109e-05
2.8703e-05
2.75929e-05
2.88861e-05
2.97088e-05
3.31975e-05
3.31977e-05
2.83405e-05
3.31959e-05
3.31962e-05
3.00963e-05
6.80444e-05
3.00977e-05
6.80405e-05
8.3436e-05
8.34347e-05
3.00958e-05
6.80475e-05
3.00973e-05
6.80432e-05
2.89939e-05
2.89939e-05
2.89937e-05
2.89925e-05
2.89929e-05
2.89929e-05
2.89927e-05
2.75938e-05
2.97106e-05
2.8885e-05
2.87031e-05
2.75927e-05
2.97082e-05
2.88861e-05
8.3433e-05
8.34308e-05
2.75939e-05
2.8885e-05
2.97109e-05
2.87031e-05
2.75929e-05
2.88861e-05
2.97089e-05
3.31975e-05
3.31978e-05
2.83405e-05
3.3196e-05
3.31964e-05
3.00963e-05
6.80447e-05
3.00977e-05
6.8041e-05
8.3436e-05
8.34348e-05
3.00959e-05
6.80471e-05
3.00973e-05
6.8043e-05
2.89939e-05
2.89938e-05
2.89937e-05
2.89925e-05
2.89929e-05
2.89929e-05
2.89927e-05
2.75938e-05
2.97106e-05
2.8885e-05
2.87031e-05
2.75927e-05
2.97082e-05
2.88861e-05
8.3433e-05
8.34308e-05
2.75939e-05
2.8885e-05
2.9711e-05
2.8703e-05
2.75928e-05
2.88861e-05
2.97089e-05
3.31975e-05
3.31979e-05
2.83405e-05
3.3196e-05
3.31964e-05
3.00963e-05
6.8045e-05
3.00978e-05
6.80411e-05
8.34361e-05
8.34348e-05
3.00959e-05
6.8047e-05
3.00974e-05
6.80431e-05
2.89939e-05
2.89938e-05
2.89937e-05
2.89925e-05
2.89929e-05
2.89929e-05
2.89927e-05
2.75938e-05
2.97106e-05
2.88851e-05
2.87031e-05
2.75928e-05
2.97083e-05
2.88862e-05
8.3433e-05
8.34308e-05
2.75939e-05
2.8885e-05
2.97109e-05
2.8703e-05
2.75928e-05
2.88861e-05
2.97089e-05
3.31975e-05
3.31979e-05
2.83405e-05
3.3196e-05
3.31964e-05
3.00963e-05
6.8045e-05
3.00978e-05
6.80411e-05
8.34361e-05
8.34348e-05
3.00959e-05
6.8047e-05
3.00973e-05
6.80431e-05
2.89939e-05
2.89939e-05
2.89937e-05
2.89925e-05
2.89929e-05
2.89929e-05
2.89927e-05
2.75938e-05
2.97106e-05
2.88851e-05
2.87031e-05
2.75928e-05
2.97083e-05
2.88862e-05
8.3433e-05
8.34308e-05
2.75939e-05
2.8885e-05
2.97109e-05
2.8703e-05
2.75928e-05
2.88861e-05
2.97089e-05
3.31975e-05
3.31979e-05
2.83405e-05
3.3196e-05
3.31964e-05
3.00963e-05
6.80451e-05
3.00977e-05
6.80412e-05
8.3436e-05
8.34348e-05
3.00958e-05
6.8047e-05
3.00973e-05
6.8043e-05
2.89939e-05
2.89939e-05
2.89937e-05
2.89925e-05
2.89929e-05
2.89929e-05
2.89927e-05
2.75938e-05
2.97106e-05
2.88851e-05
2.87031e-05
2.75928e-05
2.97082e-05
2.88862e-05
8.3433e-05
8.34308e-05
2.75939e-05
2.8885e-05
2.9711e-05
2.8703e-05
2.75928e-05
2.88861e-05
2.97089e-05
3.31975e-05
3.31978e-05
2.83405e-05
3.3196e-05
3.31962e-05
3.00963e-05
6.80451e-05
3.00978e-05
6.80411e-05
8.34357e-05
8.34346e-05
3.00958e-05
6.8047e-05
3.00973e-05
6.80431e-05
2.89939e-05
2.89939e-05
2.89937e-05
2.89925e-05
2.89929e-05
2.89929e-05
2.89927e-05
2.75938e-05
2.97106e-05
2.88851e-05
2.87031e-05
2.75928e-05
2.97082e-05
2.88862e-05
8.3433e-05
8.34308e-05
2.75938e-05
2.8885e-05
2.9711e-05
2.8703e-05
2.75928e-05
2.88861e-05
2.97089e-05
3.31975e-05
3.31978e-05
2.83405e-05
3.31959e-05
3.31964e-05
3.00963e-05
6.80451e-05
3.00977e-05
6.80412e-05
8.3436e-05
8.34349e-05
3.00958e-05
6.80471e-05
3.00972e-05
6.80431e-05
2.89939e-05
2.89939e-05
2.89937e-05
2.89925e-05
2.89929e-05
2.89929e-05
2.89927e-05
2.75938e-05
2.97106e-05
2.8885e-05
2.87031e-05
2.75928e-05
2.97082e-05
2.88861e-05
8.3433e-05
8.34308e-05
2.75938e-05
2.8885e-05
2.9711e-05
2.8703e-05
2.75928e-05
2.88861e-05
2.97089e-05
3.31974e-05
3.3198e-05
2.83405e-05
3.31959e-05
3.31965e-05
3.00963e-05
6.80451e-05
3.00977e-05
6.80411e-05
8.34361e-05
8.3433e-05
3.00959e-05
6.80471e-05
3.00973e-05
6.80431e-05
2.89939e-05
2.89939e-05
2.89937e-05
2.89925e-05
2.89929e-05
2.89929e-05
2.89927e-05
2.75938e-05
2.97106e-05
2.8885e-05
2.8703e-05
2.75928e-05
2.97082e-05
2.88861e-05
8.3433e-05
8.34309e-05
2.75938e-05
2.8885e-05
2.97109e-05
2.8703e-05
2.75928e-05
2.88861e-05
2.97089e-05
3.31975e-05
3.31979e-05
2.83405e-05
3.31959e-05
3.31963e-05
3.00963e-05
6.80448e-05
3.00978e-05
6.80409e-05
8.34342e-05
8.34337e-05
3.00959e-05
6.80471e-05
3.00974e-05
6.80431e-05
2.89939e-05
2.89939e-05
2.89937e-05
2.89925e-05
2.89929e-05
2.89929e-05
2.89927e-05
2.75938e-05
2.97106e-05
2.8885e-05
2.87031e-05
2.75928e-05
2.97082e-05
2.88861e-05
8.3433e-05
8.34309e-05
2.75938e-05
2.8885e-05
2.97109e-05
2.8703e-05
2.75928e-05
2.88861e-05
2.97089e-05
3.31974e-05
3.31977e-05
2.83405e-05
3.31959e-05
3.31962e-05
3.00963e-05
6.80447e-05
3.00978e-05
6.80409e-05
8.34357e-05
8.3434e-05
3.00959e-05
6.80471e-05
3.00973e-05
6.8043e-05
2.89939e-05
2.89939e-05
2.89937e-05
2.89925e-05
2.89929e-05
2.89929e-05
2.89927e-05
2.75938e-05
2.97106e-05
2.88851e-05
2.87031e-05
2.75928e-05
2.97082e-05
2.88862e-05
8.3433e-05
8.34309e-05
2.75939e-05
2.8885e-05
2.9711e-05
2.8703e-05
2.75928e-05
2.88861e-05
2.97089e-05
3.31974e-05
3.31977e-05
2.83405e-05
3.31959e-05
3.31962e-05
3.00963e-05
6.80449e-05
3.00978e-05
6.80408e-05
8.34357e-05
8.34345e-05
3.0096e-05
6.80471e-05
3.00974e-05
6.80435e-05
2.89939e-05
2.89938e-05
2.89937e-05
2.89925e-05
2.89929e-05
2.89929e-05
2.89927e-05
2.75938e-05
2.97106e-05
2.8885e-05
2.87031e-05
2.75928e-05
2.97082e-05
2.88861e-05
8.3433e-05
8.34309e-05
2.75938e-05
2.8885e-05
2.97109e-05
2.8703e-05
2.75928e-05
2.88861e-05
2.97089e-05
3.31975e-05
3.31977e-05
2.83405e-05
3.3196e-05
3.31962e-05
3.00963e-05
6.80441e-05
3.00978e-05
6.80396e-05
8.34357e-05
8.34345e-05
3.00959e-05
6.80477e-05
3.00974e-05
6.80444e-05
2.89939e-05
2.89939e-05
2.89937e-05
2.89925e-05
2.89929e-05
2.89929e-05
2.89927e-05
2.75938e-05
2.97106e-05
2.8885e-05
2.87032e-05
2.75928e-05
2.97082e-05
2.88861e-05
8.3433e-05
8.34309e-05
2.75939e-05
2.8885e-05
2.9711e-05
2.87031e-05
2.75928e-05
2.88861e-05
2.97089e-05
3.31975e-05
3.31979e-05
2.83405e-05
3.3196e-05
3.31964e-05
3.00963e-05
6.80435e-05
3.00978e-05
6.80394e-05
8.34358e-05
8.34346e-05
3.00959e-05
6.80487e-05
3.00973e-05
6.80449e-05
2.89939e-05
2.89939e-05
2.89937e-05
2.89925e-05
2.89929e-05
2.89929e-05
2.89927e-05
2.75938e-05
2.97106e-05
2.88851e-05
2.8703e-05
2.75927e-05
2.97083e-05
2.88861e-05
8.3433e-05
8.34309e-05
2.75939e-05
2.8885e-05
2.9711e-05
2.8703e-05
2.75928e-05
2.88861e-05
2.97089e-05
3.31975e-05
3.31979e-05
2.83405e-05
3.3196e-05
3.31964e-05
3.00963e-05
6.80433e-05
3.00978e-05
6.80392e-05
8.34358e-05
8.34346e-05
3.00959e-05
6.80489e-05
3.00973e-05
6.80451e-05
2.89939e-05
2.89939e-05
2.89937e-05
2.89925e-05
2.89929e-05
2.89929e-05
2.89927e-05
2.75938e-05
2.97106e-05
2.8885e-05
2.87031e-05
2.75927e-05
2.97083e-05
2.88861e-05
8.3433e-05
8.34309e-05
2.75938e-05
2.8885e-05
2.9711e-05
2.8703e-05
2.75928e-05
2.88861e-05
2.97089e-05
3.31975e-05
3.31977e-05
2.83405e-05
3.3196e-05
3.31962e-05
3.00963e-05
6.80431e-05
3.00977e-05
6.80392e-05
8.34359e-05
8.34346e-05
3.0096e-05
6.80491e-05
3.00974e-05
6.80451e-05
2.89939e-05
2.89939e-05
2.89937e-05
2.89925e-05
2.89929e-05
2.89929e-05
2.89927e-05
2.75938e-05
2.97106e-05
2.8885e-05
2.87031e-05
2.75928e-05
2.97082e-05
2.88861e-05
8.3433e-05
8.34309e-05
2.75938e-05
2.8885e-05
2.9711e-05
2.8703e-05
2.75928e-05
2.88861e-05
2.97089e-05
3.31975e-05
3.31978e-05
2.83405e-05
3.31959e-05
3.31963e-05
3.00963e-05
6.80432e-05
3.00978e-05
6.80391e-05
8.34359e-05
8.34346e-05
3.00959e-05
6.80491e-05
3.00974e-05
6.80449e-05
2.89939e-05
2.89939e-05
2.89937e-05
2.89925e-05
2.89929e-05
2.89929e-05
2.89927e-05
2.75938e-05
2.97105e-05
2.88851e-05
2.8703e-05
2.75928e-05
2.97082e-05
2.88862e-05
8.3433e-05
8.34309e-05
2.75939e-05
2.8885e-05
2.9711e-05
2.8703e-05
2.75928e-05
2.88861e-05
2.97089e-05
3.31975e-05
3.3198e-05
2.83405e-05
3.31959e-05
3.31965e-05
3.00963e-05
6.80431e-05
3.00977e-05
6.80391e-05
8.34359e-05
8.34347e-05
3.0096e-05
6.8049e-05
3.00974e-05
6.80449e-05
2.89939e-05
2.89939e-05
2.89937e-05
2.89925e-05
2.89929e-05
2.89929e-05
2.89927e-05
2.75938e-05
2.97106e-05
2.88851e-05
2.87031e-05
2.75928e-05
2.97082e-05
2.88862e-05
8.3433e-05
8.34309e-05
2.75939e-05
2.8885e-05
2.9711e-05
2.8703e-05
2.75928e-05
2.88861e-05
2.97089e-05
3.31975e-05
3.3198e-05
2.83405e-05
3.3196e-05
3.31964e-05
3.00963e-05
6.80431e-05
3.00977e-05
6.80391e-05
8.34359e-05
8.34347e-05
3.00959e-05
6.80489e-05
3.00974e-05
6.8045e-05
2.89939e-05
2.89939e-05
2.89937e-05
2.89925e-05
2.89929e-05
2.89929e-05
2.89927e-05
2.75938e-05
2.97106e-05
2.88851e-05
2.8703e-05
2.75928e-05
2.97082e-05
2.88861e-05
8.3433e-05
8.34308e-05
2.75939e-05
2.8885e-05
2.9711e-05
2.87031e-05
2.75928e-05
2.88861e-05
2.97089e-05
3.31975e-05
3.31978e-05
2.83405e-05
3.3196e-05
3.31963e-05
3.00963e-05
6.80431e-05
3.00977e-05
6.80391e-05
8.34359e-05
8.34347e-05
3.00959e-05
6.8049e-05
3.00973e-05
6.8045e-05
2.89939e-05
2.89939e-05
2.89937e-05
2.89925e-05
2.89929e-05
2.89928e-05
2.89927e-05
2.75938e-05
2.97106e-05
2.8885e-05
2.87031e-05
2.75928e-05
2.97082e-05
2.88861e-05
8.3433e-05
8.34309e-05
2.75939e-05
2.8885e-05
2.9711e-05
2.8703e-05
2.75928e-05
2.88861e-05
2.97089e-05
3.31975e-05
3.31979e-05
2.83405e-05
3.3196e-05
3.31965e-05
3.00966e-05
6.80431e-05
3.00978e-05
6.8039e-05
8.34359e-05
8.3435e-05
3.0097e-05
6.8049e-05
3.00972e-05
6.80451e-05
2.89938e-05
2.89936e-05
2.89935e-05
2.75956e-05
2.97106e-05
2.8885e-05
2.87026e-05
2.75927e-05
2.97087e-05
2.88862e-05
8.3433e-05
2.88858e-05
2.97109e-05
2.75928e-05
3.31975e-05
3.3198e-05
3.73739e-05
3.72959e-05
3.72959e-05
5.31145e-05
3.71931e-05
5.31164e-05
3.71931e-05
3.70932e-05
3.72517e-05
3.72521e-05
3.71762e-05
3.71762e-05
3.73698e-05
3.73777e-05
3.73044e-05
3.73767e-05
3.73698e-05
3.73777e-05
3.73044e-05
3.73767e-05
3.71731e-05
3.94119e-05
3.71676e-05
3.67256e-05
3.71731e-05
3.94118e-05
3.71676e-05
3.67257e-05
3.70964e-05
3.71021e-05
3.60287e-05
3.64214e-05
3.71634e-05
3.71112e-05
3.63046e-05
3.70964e-05
3.71021e-05
3.60289e-05
3.64214e-05
3.71634e-05
3.71112e-05
3.63046e-05
3.73739e-05
3.72959e-05
3.72959e-05
5.31146e-05
3.71931e-05
3.70932e-05
3.72523e-05
3.72517e-05
3.71762e-05
3.71762e-05
5.31161e-05
3.71931e-05
3.73698e-05
3.73777e-05
3.73044e-05
3.73767e-05
3.73698e-05
3.73777e-05
3.73767e-05
3.73044e-05
3.71731e-05
3.94123e-05
3.71676e-05
3.67259e-05
3.70964e-05
3.71021e-05
3.60286e-05
3.64214e-05
3.71634e-05
3.71112e-05
3.63046e-05
3.71731e-05
3.94126e-05
3.71676e-05
3.67256e-05
3.70964e-05
3.71021e-05
3.64214e-05
3.60289e-05
3.71112e-05
3.71634e-05
3.63046e-05
3.73773e-05
3.73764e-05
3.73769e-05
3.73769e-05
3.73773e-05
3.73764e-05
3.73769e-05
3.73769e-05
3.73773e-05
3.73764e-05
3.73769e-05
3.73769e-05
3.71137e-05
3.71101e-05
3.64248e-05
3.64248e-05
3.71128e-05
3.71128e-05
3.64268e-05
3.71137e-05
3.71101e-05
3.64247e-05
3.64247e-05
3.71128e-05
3.71128e-05
3.64269e-05
3.71137e-05
3.71101e-05
3.64247e-05
3.64247e-05
3.71128e-05
3.71128e-05
3.64269e-05
3.71137e-05
3.71101e-05
3.64247e-05
3.64247e-05
3.71128e-05
3.71128e-05
3.64269e-05
3.73698e-05
3.73777e-05
3.73767e-05
3.73044e-05
3.70964e-05
3.71021e-05
3.60288e-05
3.64215e-05
3.71634e-05
3.71112e-05
3.63047e-05
3.71731e-05
3.9412e-05
3.71676e-05
3.67258e-05
3.70964e-05
3.71021e-05
3.64214e-05
3.6029e-05
3.71112e-05
3.71634e-05
3.63046e-05
3.71731e-05
3.94126e-05
3.71676e-05
3.67255e-05
3.73739e-05
3.72959e-05
3.72959e-05
5.31168e-05
3.71931e-05
3.70932e-05
3.72521e-05
3.72523e-05
3.71762e-05
3.71762e-05
5.3117e-05
3.71931e-05
3.73698e-05
3.73777e-05
3.73767e-05
3.73044e-05
3.70964e-05
3.71021e-05
3.64215e-05
3.60291e-05
3.71112e-05
3.71634e-05
3.63047e-05
3.70964e-05
3.71021e-05
3.64214e-05
3.60289e-05
3.71112e-05
3.71634e-05
3.63046e-05
3.71731e-05
3.94125e-05
3.71676e-05
3.67256e-05
3.71731e-05
3.94125e-05
3.71676e-05
3.67258e-05
3.70932e-05
3.72519e-05
3.72525e-05
3.71762e-05
3.71762e-05
5.31167e-05
3.71931e-05
5.31167e-05
3.71931e-05
5.51077e-05
6.48775e-05
5.51094e-05
6.48804e-05
3.65848e-05
3.65858e-05
3.52784e-05
3.4085e-05
3.40841e-05
7.47091e-05
6.77042e-05
7.4713e-05
6.7708e-05
3.49737e-05
3.20518e-05
3.20504e-05
3.34602e-05
3.34606e-05
3.58853e-05
4.08715e-05
3.66038e-05
4.513e-05
3.52752e-05
3.56276e-05
3.58931e-05
3.53763e-05
3.60481e-05
3.42419e-05
3.53805e-05
3.52753e-05
3.56273e-05
3.58932e-05
3.53762e-05
3.60482e-05
3.42424e-05
3.53804e-05
3.56351e-05
5.01969e-05
4.64554e-05
3.48974e-05
3.56356e-05
5.01967e-05
4.64549e-05
3.48978e-05
3.49996e-05
3.48714e-05
3.27316e-05
3.44054e-05
3.38414e-05
3.48848e-05
3.41798e-05
3.49996e-05
3.48714e-05
3.27323e-05
3.44054e-05
3.38407e-05
3.48848e-05
3.418e-05
3.65852e-05
3.65854e-05
3.52784e-05
3.4085e-05
3.40835e-05
5.51088e-05
6.48793e-05
7.47103e-05
6.77065e-05
3.49737e-05
3.20514e-05
3.205e-05
3.34599e-05
3.34612e-05
7.47113e-05
6.77064e-05
3.52754e-05
3.56275e-05
3.58932e-05
3.53763e-05
3.60482e-05
3.42417e-05
3.53805e-05
3.58854e-05
4.08728e-05
3.66034e-05
4.51323e-05
3.52753e-05
3.58932e-05
3.56275e-05
3.53762e-05
3.60481e-05
3.53805e-05
3.42418e-05
3.56352e-05
5.01968e-05
4.6455e-05
3.4898e-05
3.49996e-05
3.48714e-05
3.27313e-05
3.44054e-05
3.38408e-05
3.48848e-05
3.418e-05
3.56351e-05
5.0199e-05
4.64571e-05
3.48977e-05
3.49996e-05
3.48714e-05
3.44054e-05
3.27313e-05
3.48848e-05
3.3841e-05
3.41799e-05
3.58855e-05
4.08704e-05
3.66037e-05
4.51317e-05
3.52753e-05
3.58931e-05
3.56274e-05
3.53763e-05
3.60481e-05
3.53805e-05
3.42424e-05
3.58855e-05
4.0873e-05
3.66033e-05
4.5132e-05
3.49997e-05
3.48714e-05
3.27306e-05
3.44055e-05
3.3841e-05
3.48846e-05
3.418e-05
3.56354e-05
5.0197e-05
4.64531e-05
3.48978e-05
3.49996e-05
3.48714e-05
3.44054e-05
3.27324e-05
3.48848e-05
3.38407e-05
3.41799e-05
3.5635e-05
5.01939e-05
4.64574e-05
3.48977e-05
3.65852e-05
3.65848e-05
3.52784e-05
3.4084e-05
3.40846e-05
5.51098e-05
6.48797e-05
7.47135e-05
6.77084e-05
3.49737e-05
3.20504e-05
3.20521e-05
3.34603e-05
3.34601e-05
7.47119e-05
6.77075e-05
3.52754e-05
3.58932e-05
3.56273e-05
3.53762e-05
3.60481e-05
3.53805e-05
3.42421e-05
3.5886e-05
4.08723e-05
3.66033e-05
4.51323e-05
3.58862e-05
4.08713e-05
3.66036e-05
4.51312e-05
3.49996e-05
3.48714e-05
3.44055e-05
3.2732e-05
3.48847e-05
3.38408e-05
3.41799e-05
3.49996e-05
3.48714e-05
3.44054e-05
3.27319e-05
3.48848e-05
3.38404e-05
3.418e-05
3.56345e-05
5.0199e-05
4.64568e-05
3.48978e-05
3.56347e-05
5.01985e-05
4.64547e-05
3.48981e-05
5.51094e-05
6.48796e-05
5.51094e-05
6.48802e-05
3.49737e-05
3.20518e-05
3.20504e-05
3.34599e-05
3.34601e-05
7.47093e-05
6.77068e-05
7.47126e-05
6.77083e-05
7.65651e-05
8.08424e-05
7.65691e-05
8.08469e-05
3.17101e-05
3.17094e-05
3.32616e-05
3.0935e-05
3.09327e-05
8.39949e-05
8.18736e-05
8.39982e-05
8.1877e-05
3.29564e-05
3.03089e-05
3.03073e-05
3.07468e-05
3.07452e-05
3.3981e-05
5.13569e-05
3.46737e-05
5.46069e-05
3.30559e-05
3.24425e-05
3.39334e-05
3.34074e-05
3.38945e-05
3.1579e-05
3.34652e-05
3.3056e-05
3.24413e-05
3.39335e-05
3.34073e-05
3.38946e-05
3.15804e-05
3.34651e-05
3.37714e-05
5.83393e-05
5.56124e-05
3.30997e-05
3.37719e-05
5.83396e-05
5.56108e-05
3.30998e-05
3.27665e-05
3.29275e-05
3.06462e-05
3.25671e-05
3.13602e-05
3.30067e-05
3.19202e-05
3.27667e-05
3.29275e-05
3.06475e-05
3.2567e-05
3.13584e-05
3.30068e-05
3.19204e-05
3.17092e-05
3.17107e-05
3.32617e-05
3.09338e-05
3.09331e-05
7.65672e-05
8.08429e-05
8.39952e-05
8.18748e-05
3.29564e-05
3.03082e-05
3.03075e-05
3.07456e-05
3.07476e-05
8.39945e-05
8.18741e-05
3.30561e-05
3.24417e-05
3.39334e-05
3.34074e-05
3.38945e-05
3.15792e-05
3.34652e-05
3.39819e-05
5.13596e-05
3.46735e-05
5.46093e-05
3.30559e-05
3.39335e-05
3.24422e-05
3.34072e-05
3.38944e-05
3.34651e-05
3.15787e-05
3.37701e-05
5.83405e-05
5.56139e-05
3.31017e-05
3.27664e-05
3.29275e-05
3.06462e-05
3.25671e-05
3.13587e-05
3.30067e-05
3.19205e-05
3.37703e-05
5.83433e-05
5.56131e-05
3.31009e-05
3.27663e-05
3.29274e-05
3.2567e-05
3.06457e-05
3.30068e-05
3.13598e-05
3.19202e-05
3.39815e-05
5.13569e-05
3.46735e-05
5.46049e-05
3.30559e-05
3.39334e-05
3.24417e-05
3.34073e-05
3.38945e-05
3.34652e-05
3.15806e-05
3.39807e-05
5.13529e-05
3.46737e-05
5.46004e-05
3.27665e-05
3.29273e-05
3.06457e-05
3.25675e-05
3.136e-05
3.30064e-05
3.19208e-05
3.37714e-05
5.83344e-05
5.56074e-05
3.30999e-05
3.27665e-05