/*--------------------------------*- C++ -*----------------------------------*\
| =========                 |                                                 |
| \\      /  F ield         | OpenFOAM: The Open Source CFD Toolbox           |
|  \\    /   O peration     | Version:  v1912                                 |
|   \\  /    A nd           | Website:  www.openfoam.com                      |
|    \\/     M anipulation  |                                                 |
\*---------------------------------------------------------------------------*/
FoamFile
{
    version     2.0;
    format      ascii;
    class       surfaceScalarField;
    location    "20";
    object      phi;
}
// * * * * * * * * * * * * * * * * * * * * * * * * * * * * * * * * * * * * * //

dimensions      [0 3 -1 0 0 0 0];
oriented        oriented;


internalField   nonuniform List<scalar> 
165607
(
-0.00104215
-1.46081e-05
-1.45044e-05
9.36465e-06
9.19476e-06
0.0010527
-0.000261455
-5.6564e-06
1.44851e-05
6.8818e-06
0.00105938
-4.56823e-06
-1.60083e-06
-2.19799e-06
-2.5543e-06
-6.64745e-06
-7.05495e-06
-3.17326e-06
-0.00026329
-0.000259726
-0.000262822
-0.000261432
-5.66141e-06
1.4514e-05
6.97146e-06
0.00105917
-4.5734e-06
-1.61096e-06
-2.2056e-06
-2.55867e-06
-6.64151e-06
-7.05114e-06
-3.17534e-06
-0.000259698
-0.000263262
-0.000262786
-0.000260568
5.63201e-06
5.672e-06
-4.87006e-06
-4.86414e-06
0.000258998
-1.62135e-06
-1.62324e-06
-0.00106074
8.88719e-07
8.89328e-07
0.0010622
-0.00106268
-1.6078e-06
1.61696e-06
7.66222e-07
0.00106398
-6.66327e-07
8.18351e-07
-1.37317e-07
3.86313e-07
-7.95623e-07
-1.41451e-06
-2.68741e-07
-0.00106236
-1.60271e-06
1.62773e-06
7.61621e-07
0.00106366
-6.66308e-07
8.1283e-07
-1.37356e-07
3.83655e-07
-7.98178e-07
-1.4142e-06
-2.66274e-07
-0.000261555
1.64061e-06
1.60286e-06
-6.88714e-07
-6.91856e-07
0.000259692
-1.34847e-06
-1.3498e-06
-0.00106641
6.75037e-07
6.75708e-07
0.00106776
-0.0010679
-1.5615e-06
1.35459e-06
6.52069e-07
0.00106927
-6.31285e-07
8.69319e-07
-9.77882e-08
4.32045e-07
-7.77915e-07
-1.37618e-06
-2.34412e-07
-0.00106758
-1.55615e-06
1.34957e-06
6.57453e-07
0.00106894
-6.31213e-07
8.63943e-07
-9.77028e-08
4.31879e-07
-7.7803e-07
-1.37069e-06
-2.32091e-07
-0.000262789
1.5918e-06
1.55632e-06
-6.53013e-07
-6.6116e-07
0.000260955
-1.25101e-06
-1.25225e-06
-0.00107179
6.1531e-07
6.16169e-07
0.00107307
-0.00107326
-1.53868e-06
1.25194e-06
5.92666e-07
0.00107449
-5.95902e-07
9.08585e-07
-5.40886e-08
4.76749e-07
-7.36616e-07
-1.34382e-06
-1.89472e-07
-0.00107293
-1.53329e-06
1.25172e-06
5.92858e-07
0.00107416
-5.93128e-07
9.03146e-07
-5.63582e-08
4.76656e-07
-7.39156e-07
-1.34362e-06
-1.87021e-07
-0.000264072
1.56648e-06
1.53352e-06
-6.19959e-07
-6.25511e-07
0.000262217
-5.49507e-07
-5.50429e-07
-0.00107572
3.04271e-07
3.04461e-07
0.00107621
-0.00107678
-1.34596e-06
5.50258e-07
2.63209e-07
0.0010771
-3.85359e-07
1.09796e-06
1.46134e-07
7.44599e-07
-4.24354e-07
-1.0662e-06
9.3763e-08
-0.00107644
-1.34063e-06
5.50176e-07
2.63353e-07
0.00107677
-3.82566e-07
1.09245e-06
1.43112e-07
7.44483e-07
-4.26779e-07
-1.06598e-06
9.66542e-08
-0.000264853
1.374e-06
1.3407e-06
-3.70372e-07
-3.7567e-07
0.000262884
-1.14262e-07
-1.14481e-07
-0.00107693
7.04136e-08
7.04127e-08
0.00107702
-0.00107747
-1.23769e-06
1.14431e-07
6.39686e-08
0.00107749
-2.82485e-07
1.192e-06
2.37467e-07
8.68435e-07
-2.79759e-07
-9.25448e-07
2.23574e-07
-0.00107713
-1.23229e-06
1.14414e-07
6.39902e-08
0.00107715
-2.79686e-07
1.18658e-06
2.34672e-07
8.68267e-07
-2.82392e-07
-9.2531e-07
2.26308e-07
-0.000264922
1.26583e-06
1.23238e-06
-2.46189e-07
-2.51412e-07
0.000262922
-9.99919e-09
-9.94654e-09
-0.00107711
6.49542e-09
6.51882e-09
0.00107711
-0.0010775
-1.21325e-06
9.90255e-09
8.26368e-09
0.0010775
-2.60247e-07
1.21187e-06
2.55769e-07
8.92167e-07
-2.52786e-07
-8.96609e-07
2.4599e-07
-0.00107717
-1.20783e-06
9.91208e-09
8.24182e-09
0.00107717
-2.5744e-07
1.20645e-06
2.52975e-07
8.91991e-07
-2.55464e-07
-8.96483e-07
2.4869e-07
-0.000264908
1.24143e-06
1.20796e-06
-2.22051e-07
-2.27249e-07
0.000262908
5.63691e-10
7.11943e-10
-0.00107712
-8.15848e-10
-7.94302e-10
0.00107712
-0.0010775
-1.21115e-06
-7.49827e-10
2.7688e-09
0.0010775
-2.58408e-07
1.21344e-06
2.57177e-07
8.94096e-07
-2.50545e-07
-8.94164e-07
2.47805e-07
-0.00107716
-1.20575e-06
-7.32824e-10
2.74806e-09
0.00107716
-2.55609e-07
1.20802e-06
2.54379e-07
8.9392e-07
-2.53214e-07
-8.94032e-07
2.50508e-07
-0.000264906
1.23933e-06
1.20585e-06
-2.20219e-07
-2.25413e-07
0.000262906
1.31017e-09
1.43584e-09
-0.00107712
-1.35426e-09
-1.33673e-09
0.00107712
-0.0010775
-1.21102e-06
-1.48696e-09
2.49247e-09
0.0010775
-2.58288e-07
1.21352e-06
2.57243e-07
8.94181e-07
-2.50437e-07
-8.94045e-07
2.47883e-07
-0.00107716
-1.20561e-06
-1.4856e-09
2.46929e-09
0.00107716
-2.55486e-07
1.20811e-06
2.54447e-07
8.94009e-07
-2.53102e-07
-8.93911e-07
2.5059e-07
-0.000264906
1.2392e-06
1.20573e-06
-2.20121e-07
-2.25314e-07
0.000262906
1.20118e-09
1.32123e-09
-0.00107712
-1.29821e-09
-1.29149e-09
0.00107712
-0.0010775
-1.21104e-06
-1.37577e-09
2.52263e-09
0.0010775
-2.58306e-07
1.2135e-06
2.57217e-07
8.94151e-07
-2.50466e-07
-8.94074e-07
2.47852e-07
-0.00107716
-1.20564e-06
-1.33931e-09
2.51234e-09
0.00107716
-2.55511e-07
1.20808e-06
2.54418e-07
8.93971e-07
-2.53137e-07
-8.93946e-07
2.50553e-07
-0.000264906
1.23924e-06
1.20577e-06
-2.20155e-07
-2.25348e-07
0.000262906
1.06729e-09
1.27701e-09
-0.00107712
-1.25614e-09
-1.2255e-09
0.00107712
-0.0010775
-1.21105e-06
-1.37326e-09
2.53864e-09
0.0010775
-2.5554e-07
1.2135e-06
2.54434e-07
8.94145e-07
-2.50449e-07
-8.94084e-07
2.47824e-07
-0.00107716
-1.20564e-06
-1.34348e-09
2.51399e-09
0.00107716
-2.55514e-07
1.20808e-06
2.54419e-07
8.93968e-07
-2.53144e-07
-8.93955e-07
2.5055e-07
-0.000264906
1.23924e-06
1.20577e-06
-2.20161e-07
-2.25354e-07
0.000262906
1.34357e-09
1.48939e-09
-0.00107712
-1.40343e-09
-1.37506e-09
0.00107712
-0.0010775
-1.21101e-06
-1.53289e-09
2.47292e-09
0.0010775
-2.55507e-07
1.21353e-06
2.54467e-07
8.94183e-07
-2.50409e-07
-8.94045e-07
2.47863e-07
-0.00107716
-1.2056e-06
-1.54575e-09
2.44113e-09
0.00107716
-2.55475e-07
1.20812e-06
2.54457e-07
8.94013e-07
-2.531e-07
-8.93911e-07
2.50595e-07
-0.000264906
1.2392e-06
1.20572e-06
-2.20116e-07
-2.25314e-07
0.000262906
1.34968e-09
1.4581e-09
-0.00107712
-1.42523e-09
-1.37825e-09
0.00107712
-0.0010775
-1.21101e-06
-1.47185e-09
2.47243e-09
0.0010775
-2.55509e-07
1.21353e-06
2.54467e-07
8.94166e-07
-2.50425e-07
-8.94057e-07
2.47843e-07
-0.00107716
-1.20561e-06
-1.47677e-09
2.46591e-09
0.00107716
-2.55485e-07
1.2081e-06
2.54441e-07
8.93998e-07
-2.53109e-07
-8.93918e-07
2.5058e-07
-0.000264906
1.23921e-06
1.20574e-06
-2.20131e-07
-2.25322e-07
0.000262906
1.21858e-09
1.30908e-09
-0.00107712
-1.34536e-09
-1.30936e-09
0.00107712
-0.0010775
-1.21103e-06
-1.36338e-09
2.51536e-09
0.0010775
-2.55527e-07
1.21351e-06
2.5445e-07
8.94139e-07
-2.50451e-07
-8.94086e-07
2.47819e-07
-0.00107716
-1.20564e-06
-1.33463e-09
2.52208e-09
0.00107716
-2.55514e-07
1.20807e-06
2.54416e-07
8.93966e-07
-2.53144e-07
-8.93954e-07
2.50548e-07
-0.000264906
1.23924e-06
1.20577e-06
-2.20159e-07
-2.25352e-07
0.000262906
1.20613e-09
1.37312e-09
-0.00107712
-1.3429e-09
-1.29206e-09
0.00107712
-0.0010775
-1.21105e-06
-1.39716e-09
2.54832e-09
0.0010775
-2.55543e-07
1.2135e-06
2.5444e-07
8.94157e-07
-2.50441e-07
-8.94075e-07
2.47835e-07
-0.00107716
-1.20563e-06
-1.42443e-09
2.48423e-09
0.00107716
-2.55499e-07
1.20809e-06
2.54435e-07
8.93987e-07
-2.53126e-07
-8.93936e-07
2.50569e-07
-0.000264906
1.23922e-06
1.20576e-06
-2.20148e-07
-2.25335e-07
0.000262906
1.22141e-09
1.41176e-09
-0.00107712
-1.36949e-09
-1.3114e-09
0.00107712
-0.0010775
-1.21106e-06
-1.40883e-09
2.56504e-09
0.0010775
-2.55563e-07
1.21349e-06
2.54432e-07
8.94168e-07
-2.50424e-07
-8.9406e-07
2.47849e-07
-0.00107716
-1.20562e-06
-1.42266e-09
2.47328e-09
0.00107716
-2.55494e-07
1.2081e-06
2.54436e-07
8.93988e-07
-2.53123e-07
-8.93932e-07
2.50569e-07
-0.000264906
1.23922e-06
1.20575e-06
-2.20143e-07
-2.25331e-07
0.000262906
1.19416e-09
1.35783e-09
-0.00107712
-1.33652e-09
-1.314e-09
0.00107712
-0.0010775
-1.21103e-06
-1.34329e-09
2.54162e-09
0.0010775
-2.55526e-07
1.21348e-06
2.54407e-07
8.94145e-07
-2.50443e-07
-8.94081e-07
2.47827e-07
-0.00107716
-1.20564e-06
-1.33469e-09
2.50951e-09
0.00107716
-2.55513e-07
1.20808e-06
2.54419e-07
8.93972e-07
-2.5314e-07
-8.9395e-07
2.50554e-07
-0.000264906
1.23924e-06
1.20577e-06
-2.20155e-07
-2.25347e-07
0.000262906
1.20183e-09
1.38988e-09
-0.00107712
-1.33622e-09
-1.28911e-09
0.00107712
-0.0010775
-1.21103e-06
-1.43529e-09
2.54435e-09
0.0010775
-2.55522e-07
1.2135e-06
2.54418e-07
8.94169e-07
-2.50429e-07
-8.94065e-07
2.47849e-07
-0.00107716
-1.20562e-06
-1.46605e-09
2.47789e-09
0.00107716
-2.55495e-07
1.2081e-06
2.54441e-07
8.93998e-07
-2.53119e-07
-8.93928e-07
2.5058e-07
-0.000264906
1.23922e-06
1.20575e-06
-2.2014e-07
-2.2533e-07
0.000262906
1.09178e-09
1.40229e-09
-0.00107712
-1.32682e-09
-1.24754e-09
0.00107712
-0.0010775
-1.21107e-06
-1.4069e-09
2.63733e-09
0.0010775
-2.55572e-07
1.21345e-06
2.54361e-07
8.94173e-07
-2.5043e-07
-8.94062e-07
2.47848e-07
-0.00107716
-1.20563e-06
-1.46363e-09
2.49158e-09
0.00107716
-2.55499e-07
1.20809e-06
2.54432e-07
8.93997e-07
-2.53117e-07
-8.93926e-07
2.50577e-07
-0.000264906
1.23922e-06
1.20575e-06
-2.20142e-07
-2.25329e-07
0.000262906
1.23514e-09
1.34657e-09
-0.00107712
-1.29802e-09
-1.29192e-09
0.00107712
-0.0010775
-1.21099e-06
-1.48895e-09
2.44364e-09
0.0010775
-2.55468e-07
1.21353e-06
2.54482e-07
8.94172e-07
-2.50405e-07
-8.94051e-07
2.47864e-07
-0.00107716
-1.20562e-06
-1.475e-09
2.49074e-09
0.00107716
-2.55498e-07
1.2081e-06
2.54436e-07
8.93996e-07
-2.53118e-07
-8.93928e-07
2.50578e-07
-0.000264906
1.23921e-06
1.20575e-06
-2.2014e-07
-2.25328e-07
0.000262906
1.12753e-09
1.22761e-09
-0.00107711
-1.31701e-09
-1.35107e-09
0.00107711
-0.0010775
-1.21103e-06
-1.4058e-09
2.52823e-09
0.0010775
-2.58305e-07
1.2135e-06
2.57186e-07
8.9416e-07
-2.50466e-07
-8.94072e-07
2.47859e-07
-0.00107716
-1.20562e-06
-1.43326e-09
2.49091e-09
0.00107716
-2.555e-07
1.20809e-06
2.5443e-07
8.93991e-07
-2.53118e-07
-8.93929e-07
2.50573e-07
-0.000264906
1.23922e-06
1.20575e-06
-2.20141e-07
-2.25333e-07
0.000262906
1.30368e-09
1.37089e-09
-0.00107712
-1.32452e-09
-1.33943e-09
0.00107712
-0.0010775
-1.21101e-06
-1.41046e-09
2.49361e-09
0.0010775
-2.58317e-07
1.21349e-06
2.5723e-07
8.94155e-07
-2.50463e-07
-8.94072e-07
2.47857e-07
-0.00107716
-1.20563e-06
-1.40953e-09
2.48987e-09
0.00107716
-2.55501e-07
1.20809e-06
2.54431e-07
8.93984e-07
-2.53126e-07
-8.93938e-07
2.50566e-07
-0.000264906
1.23922e-06
1.20575e-06
-2.20143e-07
-2.25335e-07
0.000262906
1.26185e-09
1.36243e-09
-0.00107712
-1.33275e-09
-1.3264e-09
0.00107712
-0.0010775
-1.21101e-06
-1.39433e-09
2.50164e-09
0.0010775
-2.58312e-07
1.21349e-06
2.57237e-07
8.94156e-07
-2.50462e-07
-8.94071e-07
2.47858e-07
-0.00107716
-1.20563e-06
-1.37852e-09
2.49008e-09
0.00107716
-2.55503e-07
1.20809e-06
2.54428e-07
8.9398e-07
-2.5313e-07
-8.93941e-07
2.50562e-07
-0.000264906
1.23923e-06
1.20576e-06
-2.20146e-07
-2.25342e-07
0.000262906
1.24664e-09
1.33844e-09
-0.00107712
-1.32185e-09
-1.31148e-09
0.00107712
-0.0010775
-1.21102e-06
-1.37416e-09
2.51888e-09
0.0010775
-2.58319e-07
1.21348e-06
2.57233e-07
8.94154e-07
-2.50468e-07
-8.94075e-07
2.47855e-07
-0.00107716
-1.20563e-06
-1.37226e-09
2.49731e-09
0.00107716
-2.55504e-07
1.20808e-06
2.54427e-07
8.9398e-07
-2.53132e-07
-8.93942e-07
2.50561e-07
-0.000264906
1.23923e-06
1.20576e-06
-2.20148e-07
-2.2534e-07
0.000262906
1.27439e-09
1.37517e-09
-0.00107712
-1.34229e-09
-1.33249e-09
0.00107712
-0.0010775
-1.21101e-06
-1.41511e-09
2.49926e-09
0.0010775
-2.5831e-07
1.21349e-06
2.57242e-07
8.9416e-07
-2.50461e-07
-8.94069e-07
2.47861e-07
-0.00107716
-1.20563e-06
-1.39566e-09
2.48937e-09
0.00107716
-2.55501e-07
1.20809e-06
2.5443e-07
8.93983e-07
-2.53128e-07
-8.93938e-07
2.50565e-07
-0.000264906
1.23923e-06
1.20575e-06
-2.20143e-07
-2.25336e-07
0.000262906
1.26391e-09
1.3978e-09
-0.00107712
-1.34973e-09
-1.33991e-09
0.00107712
-0.0010775
-1.21101e-06
-1.41109e-09
2.49969e-09
0.0010775
-2.58311e-07
1.21349e-06
2.5724e-07
8.94159e-07
-2.5046e-07
-8.94067e-07
2.47861e-07
-0.00107716
-1.20563e-06
-1.39128e-09
2.48461e-09
0.00107716
-2.55499e-07
1.20809e-06
2.54433e-07
8.93983e-07
-2.53129e-07
-8.93939e-07
2.50564e-07
-0.000264906
1.23923e-06
1.20576e-06
-2.20147e-07
-2.25341e-07
0.000262906
1.27847e-09
1.41106e-09
-0.00107712
-1.34177e-09
-1.35191e-09
0.00107712
-0.0010775
-1.211e-06
-1.43383e-09
2.4935e-09
0.0010775
-2.58305e-07
1.2135e-06
2.57245e-07
8.94163e-07
-2.50456e-07
-8.94064e-07
2.47864e-07
-0.00107716
-1.20562e-06
-1.41294e-09
2.474e-09
0.00107716
-2.55494e-07
1.2081e-06
2.54436e-07
8.93983e-07
-2.53124e-07
-8.93935e-07
2.50565e-07
-0.000264906
1.23922e-06
1.20575e-06
-2.20139e-07
-2.25334e-07
0.000262906
1.25717e-09
1.42314e-09
-0.00107712
-1.33599e-09
-1.35234e-09
0.00107712
-0.0010775
-1.21101e-06
-1.42968e-09
2.50091e-09
0.0010775
-2.5831e-07
1.21349e-06
2.57243e-07
8.94163e-07
-2.50458e-07
-8.94063e-07
2.47865e-07
-0.00107716
-1.20562e-06
-1.43666e-09
2.4835e-09
0.00107716
-2.55497e-07
1.2081e-06
2.54438e-07
8.93991e-07
-2.53123e-07
-8.9393e-07
2.50569e-07
-0.000264906
1.23922e-06
1.20575e-06
-2.20145e-07
-2.25336e-07
0.000262906
1.20319e-09
1.46121e-09
-0.00107712
-1.32179e-09
-1.34767e-09
0.00107712
-0.0010775
-1.211e-06
-1.41975e-09
2.51517e-09
0.0010775
-2.58293e-07
1.21348e-06
2.57225e-07
8.94136e-07
-2.50421e-07
-8.94036e-07
2.47831e-07
-0.00107716
-1.20562e-06
-1.4226e-09
2.48267e-09
0.00107716
-2.55487e-07
1.20808e-06
2.54423e-07
8.93963e-07
-2.53095e-07
-8.93908e-07
2.50537e-07
-0.000264906
1.23922e-06
1.20575e-06
-2.20139e-07
-2.25328e-07
0.000262906
1.09381e-09
1.55284e-09
-0.00107712
-1.34735e-09
4.05967e-09
0.00107711
-0.0010775
-1.21096e-06
-1.4526e-09
2.51311e-09
0.0010775
-2.58245e-07
1.21344e-06
2.57174e-07
8.94098e-07
-2.50319e-07
-8.93944e-07
2.47771e-07
-0.00107716
-1.20555e-06
-1.51947e-09
2.49784e-09
-2.55387e-07
1.20801e-06
2.54318e-07
8.93889e-07
-2.52921e-07
-8.9376e-07
2.50458e-07
-0.000264906
1.23916e-06
1.2057e-06
-2.20066e-07
-2.25249e-07
0.000262906
5.21159e-06
5.22243e-06
0.00026057
-0.000259157
-5.93062e-06
-5.9165e-06
5.06378e-06
0.000261404
-0.000258671
-5.95736e-06
3.37207e-06
-5.21166e-06
5.05875e-06
0.000261437
-0.000258686
-5.96536e-06
3.36722e-06
5.21225e-06
0.000260583
-0.00025916
-5.90202e-06
-5.9452e-06
5.05685e-06
0.000261468
-0.000258702
-5.96284e-06
3.36191e-06
5.06358e-06
-5.21391e-06
0.000261412
-0.000258671
3.37713e-06
-5.96754e-06
1.07127e-05
1.06189e-05
-0.000252643
-0.000256072
-0.000255112
-0.000255112
-6.43332e-06
-4.10789e-06
-6.66545e-06
-6.43368e-06
-4.10878e-06
-6.67099e-06
-5.05179e-06
0.00104217
1.06723e-05
1.06243e-05
-0.000252645
-0.00025607
-0.000255115
-0.000255115
-6.43593e-06
-4.10816e-06
-6.66818e-06
-6.43115e-06
-4.10356e-06
-6.66342e-06
-5.05146e-06
0.00104205
1.07326e-05
1.06849e-05
-0.000252638
-0.000256065
-0.000255112
-0.000255107
-6.43579e-06
-4.11553e-06
-6.66812e-06
-6.43599e-06
-4.10581e-06
-6.66574e-06
-5.06614e-06
-5.05426e-06
0.00104211
1.07279e-05
1.06292e-05
-0.00025264
-0.000256067
-0.000255112
-0.000255112
-6.43067e-06
-4.11048e-06
-6.66312e-06
-6.43611e-06
-4.10863e-06
-6.66846e-06
-0.000258697
-5.9552e-06
3.35687e-06
-5.21151e-06
0.000261399
-0.000258669
3.37212e-06
-5.95729e-06
5.21465e-06
0.000260563
-0.000259144
-5.90431e-06
-5.94249e-06
-0.000258681
3.36441e-06
-5.95235e-06
-5.2224e-06
0.000261466
-0.000258697
3.35941e-06
-5.96032e-06
-0.000259155
-5.93048e-06
-5.91653e-06
5.63229e-06
5.66934e-06
-4.87036e-06
-4.86413e-06
0.000259003
-8.18994e-07
-7.82854e-07
0.000261566
-0.000259433
-2.691e-07
-2.61654e-07
7.13407e-06
0.00105879
-4.56567e-06
-1.55461e-06
-2.19277e-06
-2.55543e-06
-6.66181e-06
-7.06077e-06
-3.18013e-06
-0.000263251
-0.000259683
-0.000262786
-5.64272e-06
1.45815e-05
7.07345e-06
0.00105915
-4.58485e-06
-1.547e-06
-2.19588e-06
-2.56623e-06
-6.69333e-06
-7.07759e-06
-3.19582e-06
-0.000263326
-0.000259714
-0.000262827
0.00106193
1.95799e-06
-0.00106087
9.15339e-07
-1.71806e-06
-1.49883e-07
-6.95455e-07
-1.47299e-06
-2.71616e-07
-8.08901e-07
3.65131e-07
8.27139e-07
0.00106235
1.95856e-06
-0.00106128
9.10299e-07
-1.72848e-06
-1.42583e-07
-7.01004e-07
-1.47877e-06
-2.71701e-07
-8.09189e-07
3.70589e-07
-4.86851e-06
-4.86099e-06
0.000259013
-7.85575e-07
0.000261591
-0.000259453
-2.66399e-07
-2.58733e-07
6.85545e-06
0.00105962
-4.58992e-06
-1.61356e-06
-2.20884e-06
-2.5646e-06
-6.67588e-06
-7.07303e-06
-3.19111e-06
-0.000263346
-0.000259742
-0.00026284
-5.64241e-06
1.46158e-05
7.16769e-06
0.00105893
-4.58464e-06
-1.55704e-06
-2.20089e-06
-2.5683e-06
-6.69262e-06
-7.07661e-06
-3.19549e-06
-0.000259683
-0.000263303
-0.000262799
0.00106294
1.96572e-06
-0.00106187
9.04058e-07
-1.68806e-06
-1.52339e-07
-6.9575e-07
-1.47598e-06
-2.71667e-07
-8.06567e-07
3.67586e-07
8.16384e-07
0.00106204
1.96873e-06
-0.001061
9.25641e-07
-1.71821e-06
-1.47507e-07
-6.95693e-07
-1.47578e-06
-2.69176e-07
-8.11633e-07
3.65088e-07
1.46129e-05
7.15487e-06
0.00105874
-4.56555e-06
-1.55449e-06
-2.19011e-06
-2.55543e-06
-6.66176e-06
-3.18013e-06
-7.05847e-06
-0.000259678
-0.000263246
-0.000262781
1.96488e-06
-0.00106162
9.09367e-07
-1.68795e-06
-1.49717e-07
-6.92803e-07
-1.47321e-06
-2.73963e-07
3.62354e-07
-8.06281e-07
8.16339e-07
0.00106183
1.96812e-06
-0.00106079
9.25629e-07
-1.71813e-06
-1.47442e-07
-6.95472e-07
-1.47554e-06
-2.71308e-07
-8.0861e-07
3.6786e-07
-4.87322e-06
-4.86082e-06
0.000258993
-7.77376e-07
0.000261543
-0.000259415
-2.69484e-07
-2.64096e-07
1.45142e-05
6.874e-06
0.00105957
-4.59009e-06
-1.61357e-06
-2.2089e-06
-2.56442e-06
-6.67571e-06
-3.19101e-06
-7.07029e-06
-0.000259731
-0.000263344
-0.000262835
1.97004e-06
-0.00106131
9.24736e-07
-1.68549e-06
-1.52198e-07
-6.95486e-07
-1.47009e-06
-2.69094e-07
3.62363e-07
-8.08855e-07
7.77465e-07
0.00106285
1.9707e-06
-0.00106179
9.14367e-07
-1.68302e-06
-1.52344e-07
-6.93136e-07
-1.47321e-06
-2.71515e-07
-8.08997e-07
3.62487e-07
-0.00025943
-2.66633e-07
-2.64321e-07
1.64059e-06
1.60532e-06
-6.86022e-07
-6.9437e-07
0.0002597
-8.9738e-07
-8.58326e-07
0.000262802
-0.000260634
-2.09861e-07
-2.02186e-07
7.67816e-07
0.00106322
-6.68885e-07
8.51863e-07
-1.32577e-07
3.86449e-07
-7.9557e-07
-1.41687e-06
-2.68707e-07
-1.64587e-06
1.62197e-06
7.62497e-07
0.00106365
-6.71782e-07
8.59979e-07
-1.32588e-07
3.91889e-07
-7.98501e-07
-1.42263e-06
-2.66443e-07
0.00106713
1.36835e-06
-0.00106579
6.65544e-07
-1.59704e-06
-9.3392e-08
-6.37306e-07
-1.37115e-06
-2.33197e-07
-7.69212e-07
4.31616e-07
9.0272e-07
0.00106757
1.36839e-06
-0.00106623
6.60405e-07
-1.60243e-06
-9.35245e-08
-6.37571e-07
-1.37412e-06
-2.33158e-07
-7.69427e-07
4.34515e-07
-6.86459e-07
-6.93713e-07
0.000259718
-8.63558e-07
0.000262828
-0.000260647
-2.09897e-07
-2.0479e-07
7.61043e-07
0.00106424
-6.6655e-07
8.15665e-07
-1.35001e-07
3.88954e-07
-7.98549e-07
-1.41997e-06
-2.66372e-07
-1.64064e-06
1.62718e-06
7.6789e-07
0.00106333
-6.71783e-07
8.5192e-07
-1.32625e-07
3.86486e-07
-7.98264e-07
-1.41705e-06
-2.66258e-07
0.00106816
1.36943e-06
-0.00106683
6.64406e-07
-1.55906e-06
-9.81714e-08
-6.3232e-07
-1.36876e-06
-2.30712e-07
-7.69438e-07
4.34405e-07
8.92064e-07
0.00106725
1.36816e-06
-0.00106591
6.65583e-07
-1.59449e-06
-9.5892e-08
-6.37496e-07
-1.37124e-06
-2.33112e-07
-7.69231e-07
4.34489e-07
1.62133e-06
7.67682e-07
0.00106313
-6.71628e-07
8.49161e-07
-1.35036e-07
3.86547e-07
-7.97926e-07
-2.6606e-07
-1.41681e-06
1.36904e-06
-0.00106657
6.69715e-07
-1.56692e-06
-1.00555e-07
-6.32242e-07
-1.36864e-06
-2.30618e-07
4.34305e-07
-7.69117e-07
8.94591e-07
0.00106704
1.36279e-06
-0.0010657
6.65535e-07
-1.5945e-06
-9.58475e-08
-6.3741e-07
-1.37108e-06
-2.33046e-07
-7.69002e-07
4.3177e-07
-6.89202e-07
-6.91267e-07
0.00025968
-8.55509e-07
0.000262776
-0.000260614
-2.10077e-07
-2.04744e-07
1.62298e-06
7.5588e-07
0.00106417
-6.66594e-07
8.10213e-07
-1.39951e-07
3.83688e-07
-7.9579e-07
-2.71134e-07
-1.41449e-06
1.36938e-06
-0.00106624
6.6468e-07
-1.5563e-06
-1.00491e-07
-6.3211e-07
-1.36314e-06
-2.33185e-07
4.26013e-07
-7.69263e-07
8.58161e-07
0.00106807
1.36968e-06
-0.00106673
6.64477e-07
-1.55653e-06
-1.00622e-07
-6.32387e-07
-1.37142e-06
-2.33206e-07
-7.72119e-07
4.31607e-07
-0.000260621
-2.1003e-07
-2.04915e-07
1.59432e-06
1.56152e-06
-6.50252e-07
-6.58524e-07
0.000260955
-9.1384e-07
-8.77338e-07
0.000264087
-0.000261914
-1.93602e-07
-1.88546e-07
6.53002e-07
0.0010685
-6.39108e-07
9.03116e-07
-9.06715e-08
4.32098e-07
-7.75328e-07
-1.37071e-06
-2.3691e-07
-1.59977e-06
1.34862e-06
6.63579e-07
0.00106893
-6.39381e-07
9.08511e-07
-9.07713e-08
4.37807e-07
-7.78121e-07
-1.37631e-06
-2.31984e-07
0.0010725
1.32841e-06
-0.00107117
6.42258e-07
-1.58978e-06
-7.97156e-08
-6.24228e-07
-1.3703e-06
-2.26648e-07
-7.62582e-07
4.37187e-07
9.19312e-07
0.00107292
1.32871e-06
-0.00107159
6.42376e-07
-1.59517e-06
-7.74265e-08
-6.27174e-07
-1.37854e-06
-2.21718e-07
-7.67988e-07
4.45663e-07
-6.53274e-07
-6.55565e-07
0.000260976
-8.80005e-07
0.000264116
-0.00026194
-1.90999e-07
-1.85767e-07
6.51936e-07
0.00106954
-6.36841e-07
8.66701e-07
-9.54597e-08
4.34867e-07
-7.78108e-07
-1.37624e-06
-2.3196e-07
-1.59175e-06
1.34849e-06
6.58372e-07
0.00106861
-6.39331e-07
9.00496e-07
-9.0741e-08
4.34982e-07
-7.77915e-07
-1.37342e-06
-2.31895e-07
0.00107353
1.3298e-06
-0.0010722
6.41211e-07
-1.55416e-06
-8.21366e-08
-6.2192e-07
-1.37316e-06
-2.21697e-07
-7.68005e-07
4.4e-07
9.13928e-07
0.0010726
1.32855e-06
-0.00107127
6.42354e-07
-1.58981e-06
-7.73996e-08
-6.27126e-07
-1.37288e-06
-2.2156e-07
-7.67687e-07
4.401e-07
1.35346e-06
6.53039e-07
0.00106841
-6.36516e-07
8.97706e-07
-9.54848e-08
4.34883e-07
-7.77787e-07
-2.34371e-07
-1.37333e-06
1.32946e-06
-0.00107193
6.41418e-07
-1.55677e-06
-8.20266e-08
-6.21744e-07
-1.37047e-06
-2.2418e-07
4.37162e-07
-7.65308e-07
9.08453e-07
0.0010724
1.32834e-06
-0.00107107
6.42313e-07
-1.58453e-06
-8.21088e-08
-6.21569e-07
-1.37029e-06
-2.24133e-07
-7.65075e-07
4.37269e-07
-6.53336e-07
-6.58058e-07
0.00026094
-8.74596e-07
0.000264067
-0.000261899
-1.93697e-07
-1.85747e-07
1.34989e-06
6.57288e-07
0.00106944
-6.31496e-07
8.58611e-07
-1.00225e-07
4.32121e-07
-7.75575e-07
-2.34522e-07
-1.37104e-06
1.32931e-06
-0.0010716
6.41529e-07
-1.55138e-06
-8.43266e-08
-6.18953e-07
-1.37022e-06
-2.2179e-07
4.37102e-07
-7.67908e-07
8.74559e-07
0.00107344
1.32971e-06
-0.00107211
6.41404e-07
-1.55161e-06
-8.44863e-08
-6.19249e-07
-1.36795e-06
-2.24227e-07
-7.65436e-07
4.34559e-07
-0.000261912
-1.91176e-07
-1.85904e-07
1.57176e-06
1.53608e-06
-6.17172e-07
-6.22883e-07
0.00026222
-1.08987e-06
-1.05357e-06
0.000264869
-0.00026282
4.51552e-08
4.98719e-08
5.93439e-07
0.00107373
-5.98397e-07
9.42374e-07
-5.18559e-08
4.76769e-07
-7.3391e-07
-1.34371e-06
-1.91897e-07
-1.57715e-06
1.25127e-06
5.93502e-07
0.00107415
-6.01312e-07
9.47872e-07
-4.96032e-08
4.85255e-07
-7.39336e-07
-1.35193e-06
-1.87016e-07
0.00107601
7.22041e-07
-0.0010755
3.36768e-07
-1.42593e-06
1.07118e-07
-4.34179e-07
-1.12722e-06
2.26399e-08
-4.92289e-07
6.89803e-07
1.09528e-06
0.00107643
7.21988e-07
-0.00107592
3.36626e-07
-1.43135e-06
1.09953e-07
-4.37117e-07
-1.13569e-06
2.90108e-08
-4.98032e-07
6.98072e-07
-6.20276e-07
-6.25053e-07
0.000262245
-1.05627e-06
0.000264897
-0.000262846
4.77057e-08
5.22901e-08
5.92541e-07
0.00107476
-5.96075e-07
9.05875e-07
-5.42075e-08
4.79597e-07
-7.39329e-07
-1.34652e-06
-1.86999e-07
-1.57178e-06
1.25119e-06
5.93491e-07
0.00107383
-6.01274e-07
9.42469e-07
-4.95894e-08
4.79667e-07
-7.39056e-07
-1.34628e-06
-1.86885e-07
0.00107704
7.22955e-07
-0.00107653
3.35844e-07
-1.38996e-06
1.04343e-07
-4.3165e-07
-1.13023e-06
2.90311e-08
-4.98043e-07
6.92497e-07
1.08992e-06
0.00107611
7.22117e-07
-0.0010756
3.3663e-07
-1.42596e-06
1.10008e-07
-4.37052e-07
-1.13013e-06
2.90186e-08
-4.9788e-07
6.92421e-07
1.25096e-06
5.93452e-07
0.00107363
-5.95722e-07
9.37003e-07
-5.41709e-08
4.76827e-07
-7.36426e-07
-1.89448e-07
-1.34367e-06
7.2289e-07
-0.00107627
3.36011e-07
-1.39254e-06
1.04404e-07
-4.31548e-07
-1.1276e-06
2.57416e-08
6.89715e-07
-4.95284e-07
1.08462e-06
0.00107591
7.22169e-07
-0.0010754
3.36682e-07
-1.42049e-06
1.04227e-07
-4.31405e-07
-1.1274e-06
2.57685e-08
-4.95065e-07
6.89739e-07
-6.17659e-07
-6.24969e-07
0.000262204
-1.05076e-06
0.000264848
-0.000262805
4.51781e-08
5.22664e-08
1.25211e-06
5.92664e-07
0.00107467
-5.93409e-07
9.03113e-07
-5.65021e-08
4.74189e-07
-7.36695e-07
-1.89453e-07
-1.34127e-06
7.22699e-07
-0.00107593
3.36108e-07
-1.38719e-06
1.01457e-07
-4.28823e-07
-1.12724e-06
2.90878e-08
6.89673e-07
-4.9779e-07
1.05095e-06
0.00107695
7.2293e-07
-0.00107644
3.36017e-07
-1.38726e-06
1.01425e-07
-4.28965e-07
-1.12493e-06
2.59414e-08
-4.95164e-07
6.8725e-07
-0.000262817
4.75776e-08
5.24722e-08
1.37943e-06
1.34336e-06
-3.67861e-07
-3.73245e-07
0.000262887
-1.21137e-06
-1.17524e-06
0.000264938
-0.000262928
1.85914e-07
1.91023e-07
2.63883e-07
0.00107634
-3.88004e-07
1.13151e-06
1.48751e-07
7.44645e-07
-4.21352e-07
-1.066e-06
9.08556e-08
-1.38485e-06
5.49569e-07
2.63817e-07
0.00107676
-3.90969e-07
1.13691e-06
1.51618e-07
7.52939e-07
-4.27016e-07
-1.07439e-06
9.66e-08
0.0010767
1.83299e-07
-0.00107664
9.94353e-08
-1.28785e-06
2.26859e-07
-3.00719e-07
-9.46225e-07
2.03541e-07
-2.97069e-07
8.50776e-07
1.21678e-06
0.00107712
1.83459e-07
-0.00107707
9.95151e-08
-1.29331e-06
2.297e-07
-3.03609e-07
-9.54608e-07
2.09098e-07
-3.02707e-07
8.59065e-07
-3.70677e-07
-3.75496e-07
0.000262913
-1.17786e-06
0.000264967
-0.000262954
1.88612e-07
1.93384e-07
2.63125e-07
0.00107737
-3.85366e-07
1.09528e-06
1.46001e-07
7.47346e-07
-4.27038e-07
-1.06893e-06
9.65677e-08
-1.3795e-06
5.49723e-07
2.63862e-07
0.00107644
-3.90886e-07
1.13156e-06
1.51622e-07
7.47295e-07
-4.26909e-07
-1.06883e-06
9.65762e-08
0.00107773
1.83622e-07
-0.00107768
9.90046e-08
-1.25171e-06
2.24271e-07
-2.98037e-07
-9.49052e-07
2.09153e-07
-3.02685e-07
8.53577e-07
1.21142e-06
0.0010768
1.83482e-07
-0.00107675
9.94304e-08
-1.28791e-06
2.29714e-07
-3.03574e-07
-9.49007e-07
2.09085e-07
-3.0261e-07
8.5346e-07
5.49723e-07
2.63902e-07
0.00107624
-3.85267e-07
1.12622e-06
1.45931e-07
7.44594e-07
-4.24128e-07
9.36136e-08
-1.06611e-06
1.83613e-07
-0.00107741
9.91399e-08
-1.25437e-06
2.24226e-07
-2.98046e-07
-9.46325e-07
2.0634e-07
8.50805e-07
-2.99904e-07
1.20605e-06
0.0010766
1.8343e-07
-0.00107654
9.94211e-08
-1.28251e-06
2.24094e-07
-2.97918e-07
-9.46297e-07
2.06256e-07
-2.99804e-07
8.50777e-07
-3.68241e-07
-3.75433e-07
0.000262871
-1.17243e-06
0.000264917
-0.000262913
1.86054e-07
1.93377e-07
5.50347e-07
2.63251e-07
0.00107728
-3.82767e-07
1.09262e-06
1.432e-07
7.42126e-07
-4.24276e-07
9.38979e-08
-1.06356e-06
1.83565e-07
-0.00107707
9.91747e-08
-1.24899e-06
2.21406e-07
-2.95273e-07
-9.46098e-07
2.09071e-07
8.50732e-07
-3.02554e-07
1.17256e-06
0.00107764
1.83626e-07
-0.00107759
9.9131e-08
-1.24907e-06
2.21498e-07
-2.95314e-07
-9.4374e-07
2.06395e-07
-2.99902e-07
8.48263e-07
-0.000262926
1.88422e-07
1.9358e-07
1.27117e-06
1.23502e-06
-2.4366e-07
-2.48886e-07
0.000262924
-1.24363e-06
-1.20751e-06
0.000264924
-0.000262913
2.17294e-07
2.22467e-07
6.41965e-08
0.00107673
-2.85153e-07
1.22551e-06
2.40106e-07
8.68377e-07
-2.76938e-07
-9.25391e-07
2.20747e-07
-1.27662e-06
1.14426e-07
6.42579e-08
0.00107715
-2.88035e-07
1.23093e-06
2.4294e-07
8.76712e-07
-2.82601e-07
-9.33774e-07
2.26234e-07
0.00107674
2.00569e-08
-0.00107674
1.38382e-08
-1.24897e-06
2.56824e-07
-2.64917e-07
-8.99103e-07
2.41272e-07
-2.52318e-07
8.90073e-07
1.24907e-06
0.00107716
2.01036e-08
-0.00107716
1.38623e-08
-1.25439e-06
2.59692e-07
-2.67763e-07
-9.07437e-07
2.46858e-07
-2.57921e-07
8.98398e-07
-2.46466e-07
-2.51237e-07
0.00026295
-1.21015e-06
0.000264953
-0.000262939
2.20048e-07
2.2484e-07
6.38911e-08
0.00107776
-2.82472e-07
1.18938e-06
2.3751e-07
8.71235e-07
-2.82554e-07
-9.28217e-07
2.2631e-07
-1.27124e-06
1.14393e-07
6.41968e-08
0.00107683
-2.88007e-07
1.22556e-06
2.42961e-07
8.71088e-07
-2.82488e-07
-9.28161e-07
2.2629e-07
0.00107777
2.00191e-08
-0.00107777
1.36965e-08
-1.21282e-06
2.54217e-07
-2.62248e-07
-9.01874e-07
2.46906e-07
-2.57906e-07
8.92931e-07
1.24369e-06
0.00107684
2.00698e-08
-0.00107684
1.38186e-08
-1.24903e-06
2.5968e-07
-2.67763e-07
-9.01831e-07
2.46835e-07
-2.57834e-07
8.92812e-07
1.14372e-07
6.41962e-08
0.00107663
-2.82345e-07
1.22017e-06
2.37328e-07
8.68441e-07
-2.79679e-07
2.23413e-07
-9.25448e-07
2.0015e-08
-0.00107751
1.3713e-08
-1.21547e-06
2.54207e-07
-2.6223e-07
-8.99133e-07
2.44118e-07
8.90152e-07
-2.55088e-07
1.23827e-06
0.00107664
2.0108e-08
-0.00107664
1.38869e-08
-1.24365e-06
2.54036e-07
-2.62121e-07
-8.99135e-07
2.43985e-07
-2.55046e-07
8.90096e-07
-2.43915e-07
-2.51201e-07
0.000262909
-1.20475e-06
0.000264903
-0.000262897
2.17516e-07
2.24792e-07
1.14459e-07
6.39779e-08
0.00107767
-2.79729e-07
1.1867e-06
2.34743e-07
8.6594e-07
-2.79773e-07
2.2355e-07
-9.22888e-07
2.00096e-08
-0.00107717
1.36611e-08
-1.21004e-06
2.51424e-07
-2.59408e-07
-8.98961e-07
2.46792e-07
8.90021e-07
-2.5779e-07
1.20483e-06
0.00107768
2.00606e-08
-0.00107768
1.3743e-08
-1.21018e-06
2.51462e-07
-2.59492e-07
-8.96573e-07
2.44124e-07
-2.55143e-07
8.876e-07
-0.00026291
2.19794e-07
2.24989e-07
1.24677e-06
1.21062e-06
-2.19536e-07
-2.24708e-07
0.000262911
-1.24948e-06
-1.21067e-06
0.000264924
-0.000262909
2.19947e-07
2.25131e-07
8.41402e-09
0.00107673
-2.6296e-07
1.248e-06
2.61147e-07
8.92069e-07
-2.50017e-07
-8.96593e-07
2.43131e-07
-1.25218e-06
1.00085e-08
8.38951e-09
0.00107716
-2.65789e-07
1.25078e-06
2.61245e-07
9.00415e-07
-2.55611e-07
-9.0491e-07
2.4873e-07
0.00107673
3.03016e-10
-0.00107673
3.24534e-09
-1.24747e-06
2.62468e-07
-2.64019e-07
-8.94295e-07
2.44858e-07
-2.47919e-07
8.93875e-07
1.25225e-06
0.00107716
3.10323e-10
-0.00107716
3.19679e-09
-1.25023e-06
2.62566e-07
-2.64077e-07
-8.99933e-07
2.50446e-07
-2.53498e-07
8.99528e-07
-2.22266e-07
-2.27051e-07
0.000262937
-1.21334e-06
0.00026495
-0.000262935
2.22703e-07
2.2748e-07
8.2834e-09
0.00107777
-2.60291e-07
1.2092e-06
2.5576e-07
8.94946e-07
-2.55587e-07
-8.99342e-07
2.48784e-07
-1.24682e-06
1.00085e-08
8.39451e-09
0.00107684
-2.65796e-07