/*--------------------------------*- C++ -*----------------------------------*\
| =========                 |                                                 |
| \\      /  F ield         | OpenFOAM: The Open Source CFD Toolbox           |
|  \\    /   O peration     | Version:  v1912                                 |
|   \\  /    A nd           | Website:  www.openfoam.com                      |
|    \\/     M anipulation  |                                                 |
\*---------------------------------------------------------------------------*/
FoamFile
{
    version     2.0;
    format      ascii;
    class       volVectorField;
    location    "20";
    object      U;
}
// * * * * * * * * * * * * * * * * * * * * * * * * * * * * * * * * * * * * * //

dimensions      [0 1 -1 0 0 0 0];


internalField   nonuniform List<vector> 
57100
(
(0.000106042 0.000105977 0.100293)
(-0.000189153 0.000120439 0.10038)
(0.000120528 -0.000189152 0.10038)
(-0.000239883 -0.000239901 0.100392)
(9.50753e-05 9.50173e-05 0.100865)
(-0.000150699 9.1091e-05 0.100944)
(9.1103e-05 -0.000150718 0.100944)
(-0.000192203 -0.000192276 0.100966)
(9.60437e-05 9.6029e-05 0.101372)
(-0.000151549 8.89455e-05 0.101449)
(8.89173e-05 -0.00015153 0.101449)
(-0.000194075 -0.00019415 0.101468)
(8.76452e-05 8.76552e-05 0.101884)
(-0.000139703 8.00704e-05 0.101957)
(8.0084e-05 -0.000139664 0.101957)
(-0.000182184 -0.00018223 0.101962)
(4.31167e-05 4.30955e-05 0.102221)
(-5.7744e-05 3.47502e-05 0.102248)
(3.47517e-05 -5.7733e-05 0.102248)
(-9.77241e-05 -9.77232e-05 0.10224)
(9.27431e-06 9.26497e-06 0.102314)
(-1.24334e-05 8.83558e-06 0.102296)
(8.8342e-06 -1.24312e-05 0.102296)
(-5.17044e-05 -5.17236e-05 0.102259)
(4.45965e-07 4.4817e-07 0.102326)
(-1.60059e-06 1.4637e-06 0.102297)
(1.46242e-06 -1.60279e-06 0.102297)
(-4.22437e-05 -4.2262e-05 0.102253)
(-5.51185e-07 -5.47392e-07 0.102327)
(-4.82952e-07 7.27257e-07 0.102297)
(7.25803e-07 -4.86054e-07 0.102297)
(-4.14915e-05 -4.15091e-05 0.102252)
(-6.18359e-07 -6.14674e-07 0.102327)
(-4.3766e-07 6.84506e-07 0.102297)
(6.82484e-07 -4.39172e-07 0.102297)
(-4.14485e-05 -4.14658e-05 0.102252)
(-6.11652e-07 -6.0883e-07 0.102327)
(-4.4896e-07 6.90544e-07 0.102297)
(6.90151e-07 -4.53163e-07 0.102297)
(-4.14619e-05 -4.14795e-05 0.102252)
(-6.07313e-07 -6.00854e-07 0.102327)
(-4.50193e-07 6.92484e-07 0.102297)
(6.89846e-07 -4.53795e-07 0.102297)
(-4.1464e-05 -4.14814e-05 0.102252)
(-6.23936e-07 -6.19166e-07 0.102327)
(-4.37329e-07 6.81578e-07 0.102297)
(6.77881e-07 -4.36162e-07 0.102297)
(-4.14463e-05 -4.1465e-05 0.102252)
(-6.20393e-07 -6.19864e-07 0.102327)
(-4.54355e-07 6.81955e-07 0.102297)
(6.82304e-07 -4.42237e-07 0.102297)
(-4.14526e-05 -4.14684e-05 0.102252)
(-6.09275e-07 -6.12138e-07 0.102327)
(-4.62247e-07 6.87818e-07 0.102297)
(6.90996e-07 -4.5394e-07 0.102297)
(-4.14641e-05 -4.14804e-05 0.102252)
(-6.15391e-07 -6.10142e-07 0.102327)
(-4.46859e-07 6.91368e-07 0.102297)
(6.85683e-07 -4.46418e-07 0.102297)
(-4.14596e-05 -4.1474e-05 0.102252)
(-6.19155e-07 -6.11156e-07 0.102327)
(-4.44132e-07 6.9332e-07 0.102297)
(6.84495e-07 -4.4662e-07 0.102297)
(-4.14572e-05 -4.14724e-05 0.102252)
(-6.15825e-07 -6.11197e-07 0.102327)
(-4.51492e-07 6.93304e-07 0.102297)
(6.89685e-07 -4.53471e-07 0.102297)
(-4.14621e-05 -4.14788e-05 0.102252)
(-6.17017e-07 -6.09527e-07 0.102327)
(-4.43399e-07 6.91352e-07 0.102297)
(6.83891e-07 -4.42935e-07 0.102297)
(-4.14559e-05 -4.14719e-05 0.102252)
(-6.16735e-07 -6.04178e-07 0.102327)
(-4.44803e-07 7.04539e-07 0.102297)
(6.85879e-07 -4.43866e-07 0.102297)
(-4.14573e-05 -4.14714e-05 0.102252)
(-6.10069e-07 -6.07878e-07 0.102327)
(-4.42622e-07 6.75749e-07 0.102297)
(6.85326e-07 -4.42665e-07 0.102297)
(-4.14574e-05 -4.14702e-05 0.102252)
(-6.01244e-07 -6.06715e-07 0.102327)
(-4.49776e-07 6.91244e-07 0.102297)
(6.86742e-07 -4.45103e-07 0.102297)
(-4.14568e-05 -4.14731e-05 0.102252)
(-6.13064e-07 -6.14846e-07 0.102327)
(-4.47342e-07 6.86653e-07 0.102297)
(6.86256e-07 -4.46867e-07 0.102297)
(-4.14573e-05 -4.14736e-05 0.102252)
(-6.14216e-07 -6.12643e-07 0.102327)
(-4.47531e-07 6.86906e-07 0.102297)
(6.86964e-07 -4.49575e-07 0.102297)
(-4.14585e-05 -4.14765e-05 0.102252)
(-6.13194e-07 -6.11027e-07 0.102327)
(-4.485e-07 6.88715e-07 0.102297)
(6.87559e-07 -4.49825e-07 0.102297)
(-4.14593e-05 -4.14765e-05 0.102252)
(-6.16109e-07 -6.13251e-07 0.102327)
(-4.45505e-07 6.85985e-07 0.102297)
(6.86215e-07 -4.4832e-07 0.102297)
(-4.14568e-05 -4.14743e-05 0.102252)
(-6.17047e-07 -6.13824e-07 0.102327)
(-4.45873e-07 6.86451e-07 0.102297)
(6.85817e-07 -4.48401e-07 0.102297)
(-4.14592e-05 -4.14763e-05 0.102252)
(-6.15421e-07 -6.16229e-07 0.102327)
(-4.43762e-07 6.84764e-07 0.102297)
(6.83729e-07 -4.46551e-07 0.102297)
(-4.14564e-05 -4.14736e-05 0.102252)
(-6.14481e-07 -6.16541e-07 0.102327)
(-4.44562e-07 6.86188e-07 0.102297)
(6.84713e-07 -4.44741e-07 0.102297)
(-4.14572e-05 -4.14732e-05 0.102252)
(-6.11774e-07 -6.16386e-07 0.102327)
(-4.44529e-07 6.87017e-07 0.102297)
(6.84393e-07 -4.46104e-07 0.102297)
(-4.14551e-05 -4.14706e-05 0.102252)
(-6.1023e-07 -6.20674e-07 0.102327)
(-4.39391e-07 6.86127e-07 0.102297)
(6.85754e-07 -4.36197e-07 0.102297)
(-4.14242e-05 -4.14368e-05 0.102252)
(0.00013416 0.000134146 0.100279)
(0.000122449 0.000150316 0.100225)
(-0.000122441 0.000150294 0.100225)
(-0.000134157 0.000134112 0.100279)
(0.000150337 0.000122401 0.100225)
(0.000150312 -0.000122425 0.100225)
(8.87393e-05 8.86871e-05 0.100148)
(-8.87262e-05 8.86803e-05 0.100148)
(8.87138e-05 -8.87396e-05 0.100148)
(-8.87138e-05 -8.87338e-05 0.100148)
(-0.000150332 0.000122398 0.100225)
(-0.000150325 -0.000122418 0.100225)
(0.000134154 -0.00013418 0.100279)
(0.000122404 -0.000150348 0.100225)
(-0.000122401 -0.000150323 0.100225)
(-0.00013417 -0.000134149 0.100279)
(0.000239926 0.000239893 0.100392)
(0.000102455 0.000102357 0.100892)
(0.000120575 0.000189043 0.10038)
(-0.000120528 0.000189082 0.10038)
(8.33857e-05 0.000137008 0.100825)
(-8.3349e-05 0.000137023 0.100825)
(-0.000239928 0.000239852 0.100392)
(-0.000102416 0.000102304 0.100892)
(0.000189191 0.000120473 0.10038)
(0.000189136 -0.000120549 0.10038)
(0.000137035 8.33524e-05 0.100825)
(0.000137034 -8.33813e-05 0.100825)
(-0.000189136 -0.000120534 0.10038)
(-0.000136962 8.33587e-05 0.100825)
(-0.00013698 -8.33799e-05 0.100825)
(0.000239855 -0.000239948 0.100392)
(0.000102411 -0.000102453 0.100892)
(-0.000120502 -0.000189176 0.10038)
(8.33664e-05 -0.000136983 0.100825)
(-8.33476e-05 -0.000137005 0.100825)
(-0.000102413 -0.00010246 0.100892)
(0.000192273 0.000192145 0.100966)
(0.000102114 0.000102058 0.101394)
(9.10965e-05 0.000150756 0.100944)
(-9.10675e-05 0.00015077 0.100944)
(9.00752e-05 0.000152523 0.101319)
(-9.00749e-05 0.000152518 0.101319)
(-0.000192237 0.000192088 0.100966)
(-0.000102131 0.000102061 0.101394)
(0.000150769 9.10723e-05 0.100944)
(0.000150767 -9.10843e-05 0.100944)
(0.000152466 9.00806e-05 0.101319)
(0.000152501 -9.00779e-05 0.10132)
(-0.00015076 -9.11018e-05 0.100944)
(-0.000152509 9.01176e-05 0.101319)
(-0.000152533 -9.00909e-05 0.101319)
(0.000192192 -0.000192278 0.100966)
(0.000102092 -0.000102123 0.101394)
(-9.10847e-05 -0.000150755 0.100944)
(9.00868e-05 -0.000152485 0.10132)
(-9.00944e-05 -0.00015251 0.101319)
(-0.000102123 -0.00010216 0.101394)
(0.000194111 0.000194014 0.101468)
(9.62746e-05 9.62151e-05 0.101896)
(8.88967e-05 0.000151562 0.101449)
(-8.89094e-05 0.000151553 0.101449)
(8.80767e-05 0.000151096 0.101833)
(-8.80673e-05 0.000151107 0.101833)
(-0.000194131 0.000194008 0.101468)
(-9.62677e-05 9.62155e-05 0.101896)
(0.000151514 8.89172e-05 0.101449)
(0.000151535 -8.89033e-05 0.101449)
(0.00015107 8.81028e-05 0.101833)
(0.000151088 -8.8062e-05 0.101833)
(-0.00015157 -8.89198e-05 0.101449)
(-0.000151072 8.8109e-05 0.101833)
(-0.000151108 -8.80907e-05 0.101833)
(0.000194041 -0.000194131 0.101468)
(9.62163e-05 -9.62721e-05 0.101896)
(-8.89275e-05 -0.000151553 0.101449)
(8.80998e-05 -0.000151036 0.101833)
(-8.80996e-05 -0.000151048 0.101833)
(-9.62963e-05 -9.63092e-05 0.101896)
(0.000182202 0.000182108 0.101962)
(2.16873e-05 2.16879e-05 0.102227)
(8.00288e-05 0.000139734 0.101957)
(-8.00062e-05 0.000139728 0.101957)
(4.43254e-05 7.62082e-05 0.10221)
(-4.43417e-05 7.62465e-05 0.10221)
(-0.000182204 0.000182094 0.101962)
(-2.16635e-05 2.16638e-05 0.102227)
(0.000139699 8.00721e-05 0.101957)
(0.000139721 -8.00017e-05 0.101957)
(7.6246e-05 4.43e-05 0.10221)
(7.62656e-05 -4.43408e-05 0.10221)
(-0.000139741 -8.00374e-05 0.101957)
(-7.62287e-05 4.42833e-05 0.10221)
(-7.62467e-05 -4.43235e-05 0.10221)
(0.000182097 -0.000182221 0.101962)
(2.1717e-05 -2.1657e-05 0.102227)
(-8.00659e-05 -0.000139671 0.101957)
(4.42992e-05 -7.62202e-05 0.10221)
(-4.42754e-05 -7.61956e-05 0.10221)
(-2.16612e-05 -2.16102e-05 0.102227)
(9.7779e-05 9.77283e-05 0.10224)
(-3.01319e-05 -3.01197e-05 0.102261)
(3.47887e-05 5.77155e-05 0.102248)
(-3.48095e-05 5.77482e-05 0.102248)
(1.34653e-05 1.95807e-05 0.102292)
(-1.34809e-05 1.96101e-05 0.102292)
(-9.77653e-05 9.76961e-05 0.10224)
(3.01283e-05 -3.01051e-05 0.102261)
(5.77577e-05 3.47476e-05 0.102248)
(5.77667e-05 -3.4806e-05 0.102248)
(1.95909e-05 1.34323e-05 0.102292)
(1.96108e-05 -1.34709e-05 0.102292)
(-5.77498e-05 -3.47935e-05 0.102248)
(-1.9594e-05 1.344e-05 0.102292)
(-1.95955e-05 -1.3458e-05 0.102292)
(9.77497e-05 -9.77857e-05 0.10224)
(-3.00936e-05 3.01475e-05 0.102261)
(-3.47464e-05 -5.77246e-05 0.102248)
(1.34382e-05 -1.9583e-05 0.102292)
(-1.34365e-05 -1.95856e-05 0.102292)
(3.01203e-05 3.01369e-05 0.102261)
(5.17224e-05 5.16922e-05 0.102259)
(-4.22106e-05 -4.21876e-05 0.102255)
(8.85777e-06 1.24342e-05 0.102296)
(-8.8692e-06 1.24636e-05 0.102296)
(2.20799e-06 2.66364e-06 0.102298)
(-2.21052e-06 2.67266e-06 0.102298)
(-5.17286e-05 5.16987e-05 0.102259)
(4.22167e-05 -4.2185e-05 0.102256)
(1.24412e-05 8.82995e-06 0.102296)
(1.24533e-05 -8.85978e-06 0.102296)
(2.6547e-06 2.19076e-06 0.102298)
(2.66669e-06 -2.20468e-06 0.102297)
(-1.2446e-05 -8.85286e-06 0.102296)
(-2.65198e-06 2.18943e-06 0.102298)
(-2.66708e-06 -2.20912e-06 0.102297)
(5.17038e-05 -5.17372e-05 0.102259)
(-4.21895e-05 4.22206e-05 0.102255)
(-8.83258e-06 -1.24308e-05 0.102296)
(2.18453e-06 -2.65197e-06 0.102298)
(-2.18979e-06 -2.6534e-06 0.102298)
(4.21826e-05 4.22008e-05 0.102255)
(4.22582e-05 4.22357e-05 0.102253)
(-4.32691e-05 -4.32325e-05 0.102254)
(1.48767e-06 1.62033e-06 0.102297)
(-1.48301e-06 1.6226e-06 0.102297)
(7.9708e-07 5.6945e-07 0.102297)
(-7.90316e-07 5.73735e-07 0.102297)
(-4.2254e-05 4.22252e-05 0.102253)
(4.32692e-05 -4.32428e-05 0.102254)
(1.60978e-06 1.47024e-06 0.102297)
(1.62012e-06 -1.48055e-06 0.102297)
(5.47561e-07 7.78666e-07 0.102297)
(5.68223e-07 -7.88653e-07 0.102297)
(-1.61811e-06 -1.48264e-06 0.102297)
(-5.48139e-07 7.75201e-07 0.102297)
(-5.63852e-07 -7.83027e-07 0.102297)
(4.2225e-05 -4.22747e-05 0.102253)
(-4.32382e-05 4.32763e-05 0.102254)
(-1.46407e-06 -1.60412e-06 0.102297)
(7.71206e-07 -5.48459e-07 0.102297)
(-7.6418e-07 -5.46966e-07 0.102297)
(4.32506e-05 4.32704e-05 0.102254)
(4.15055e-05 4.14878e-05 0.102252)
(-4.33265e-05 -4.32991e-05 0.102254)
(7.45962e-07 5.05259e-07 0.102297)
(-7.43363e-07 5.11223e-07 0.102297)
(7.02621e-07 4.5862e-07 0.102297)
(-7.00117e-07 4.62436e-07 0.102297)
(-4.15083e-05 4.14751e-05 0.102252)
(4.33278e-05 -4.33014e-05 0.102254)
(4.89219e-07 7.28699e-07 0.102297)
(5.06684e-07 -7.42147e-07 0.102297)
(4.38525e-07 6.84079e-07 0.102297)
(4.57534e-07 -6.94955e-07 0.102297)
(-5.01225e-07 -7.34915e-07 0.102297)
(-4.38388e-07 6.83995e-07 0.102297)
(-4.54079e-07 -6.91788e-07 0.102297)
(4.14802e-05 -4.15268e-05 0.102252)
(-4.33002e-05 4.33358e-05 0.102254)
(-7.16261e-07 -4.83549e-07 0.102297)
(6.79102e-07 -4.36838e-07 0.102297)
(-6.72953e-07 -4.34302e-07 0.102297)
(4.33144e-05 4.33335e-05 0.102254)
(4.1458e-05 4.14339e-05 0.102252)
(-4.33209e-05 -4.3294e-05 0.102254)
(7.03752e-07 4.60655e-07 0.102297)
(-7.00769e-07 4.65741e-07 0.102297)
(7.05116e-07 4.64072e-07 0.102297)
(-7.01981e-07 4.6624e-07 0.102297)
(-4.14579e-05 4.14261e-05 0.102252)
(4.33252e-05 -4.32942e-05 0.102254)
(4.46058e-07 6.87229e-07 0.102297)
(4.60912e-07 -6.97338e-07 0.102297)
(4.45793e-07 6.86503e-07 0.102297)
(4.66485e-07 -6.97841e-07 0.102297)
(-4.56123e-07 -6.93132e-07 0.102297)
(-4.45129e-07 6.8624e-07 0.102297)
(-4.63728e-07 -6.98966e-07 0.102297)
(4.14284e-05 -4.14752e-05 0.102252)
(-4.32908e-05 4.33288e-05 0.102254)
(-6.74581e-07 -4.36869e-07 0.102297)
(6.82579e-07 -4.46014e-07 0.102297)
(-6.79688e-07 -4.45498e-07 0.102297)
(4.33031e-05 4.33219e-05 0.102254)
(4.14658e-05 4.14419e-05 0.102252)
(-4.3311e-05 -4.32716e-05 0.102254)
(7.10321e-07 4.71518e-07 0.102297)
(-7.05624e-07 4.78318e-07 0.102297)
(7.18756e-07 4.84649e-07 0.102297)
(-7.06701e-07 4.74838e-07 0.102297)
(-4.14649e-05 4.14348e-05 0.102252)
(4.33251e-05 -4.32875e-05 0.102254)
(4.56873e-07 6.93624e-07 0.102297)
(4.73044e-07 -7.04112e-07 0.102297)
(4.546e-07 6.99515e-07 0.102297)
(4.73622e-07 -7.01449e-07 0.102297)
(-4.70092e-07 -7.04453e-07 0.102297)
(-4.51506e-07 6.91509e-07 0.102297)
(-4.70963e-07 -7.03054e-07 0.102297)
(4.14396e-05 -4.14843e-05 0.102252)
(-4.32854e-05 4.3323e-05 0.102254)
(-6.85695e-07 -4.52635e-07 0.102297)
(6.86558e-07 -4.53134e-07 0.102297)
(-6.83908e-07 -4.52684e-07 0.102297)
(4.32975e-05 4.33164e-05 0.102254)
(4.14732e-05 4.14614e-05 0.102252)
(-4.33271e-05 -4.33023e-05 0.102254)
(7.20068e-07 4.83342e-07 0.102297)
(-7.0675e-07 4.83119e-07 0.102297)
(6.97344e-07 4.5688e-07 0.102297)
(-6.98729e-07 4.5954e-07 0.102297)
(-4.14688e-05 4.14388e-05 0.102252)
(4.33363e-05 -4.33019e-05 0.102254)
(4.59343e-07 7.02069e-07 0.102297)
(4.75276e-07 -7.03519e-07 0.102297)
(4.38452e-07 6.78022e-07 0.102297)
(4.59711e-07 -6.9153e-07 0.102297)
(-4.70577e-07 -7.02638e-07 0.102297)
(-4.38565e-07 6.81333e-07 0.102297)
(-4.54956e-07 -6.90571e-07 0.102297)
(4.14419e-05 -4.14873e-05 0.102252)
(-4.33001e-05 4.33362e-05 0.102254)
(-6.84042e-07 -4.52543e-07 0.102297)
(6.75691e-07 -4.3782e-07 0.102297)
(-6.71051e-07 -4.3618e-07 0.102297)
(4.33147e-05 4.33323e-05 0.102254)
(4.14549e-05 4.1428e-05 0.102252)
(-4.33283e-05 -4.33024e-05 0.102254)
(6.99312e-07 4.6018e-07 0.102297)
(-6.98804e-07 4.66983e-07 0.102297)
(6.95498e-07 4.52827e-07 0.102297)
(-6.96066e-07 4.68807e-07 0.102297)
(-4.14571e-05 4.14239e-05 0.102252)
(4.3333e-05 -4.33037e-05 0.102254)
(4.43566e-07 6.819e-07 0.102297)
(4.59524e-07 -6.93044e-07 0.102297)
(4.35452e-07 6.7779e-07 0.102297)
(4.56014e-07 -6.90017e-07 0.102297)
(-4.53096e-07 -6.89614e-07 0.102297)
(-4.47171e-07 6.78739e-07 0.102297)
(-4.55388e-07 -6.89887e-07 0.102297)
(4.14266e-05 -4.14734e-05 0.102252)
(-4.3301e-05 4.33378e-05 0.102254)
(-6.70327e-07 -4.34355e-07 0.102297)
(6.74128e-07 -4.34492e-07 0.102297)
(-6.70347e-07 -4.36025e-07 0.102297)
(4.33121e-05 4.33324e-05 0.102254)
(4.14569e-05 4.14321e-05 0.102252)
(-4.33204e-05 -4.32961e-05 0.102254)
(6.99425e-07 4.59879e-07 0.102297)
(-6.99425e-07 4.78143e-07 0.102297)
(7.00973e-07 4.57444e-07 0.102297)
(-7.01184e-07 4.82877e-07 0.102297)
(-4.14631e-05 4.14238e-05 0.102252)
(4.33168e-05 -4.32975e-05 0.102254)
(4.45062e-07 6.84952e-07 0.102297)
(4.62128e-07 -6.97391e-07 0.102297)
(4.45938e-07 6.83254e-07 0.102297)
(4.67997e-07 -7.02582e-07 0.102297)
(-4.62981e-07 -6.95779e-07 0.102297)
(-4.6082e-07 6.82591e-07 0.102297)
(-4.6996e-07 -7.00038e-07 0.102297)
(4.1429e-05 -4.14752e-05 0.102252)
(-4.32882e-05 4.33224e-05 0.102254)
(-6.76941e-07 -4.44651e-07 0.102297)
(6.84626e-07 -4.50112e-07 0.102297)
(-6.81654e-07 -4.54028e-07 0.102297)
(4.32982e-05 4.33186e-05 0.102254)
(4.14653e-05 4.1444e-05 0.102252)
(-4.33134e-05 -4.32906e-05 0.102254)
(7.08809e-07 4.72083e-07 0.102297)
(-7.07388e-07 4.87667e-07 0.102297)
(7.03517e-07 4.65525e-07 0.102297)
(-7.06153e-07 4.77018e-07 0.102297)
(-4.14783e-05 4.14317e-05 0.102252)
(4.332e-05 -4.32913e-05 0.102254)
(4.5669e-07 6.95637e-07 0.102297)
(4.73652e-07 -7.0771e-07 0.102297)
(4.47963e-07 6.90651e-07 0.102297)
(4.67511e-07 -6.99989e-07 0.102297)
(-4.72598e-07 -7.01362e-07 0.102297)
(-4.49826e-07 6.89189e-07 0.102297)
(-4.66368e-07 -6.9555e-07 0.102297)
(4.14409e-05 -4.14895e-05 0.102252)
(-4.32912e-05 4.3326e-05 0.102254)
(-6.84043e-07 -4.56366e-07 0.102297)
(6.83098e-07 -4.46292e-07 0.102297)
(-6.79811e-07 -4.46211e-07 0.102297)
(4.33027e-05 4.33246e-05 0.102254)
(4.14648e-05 4.14499e-05 0.102252)
(-4.33219e-05 -4.32977e-05 0.102254)
(7.03233e-07 4.72436e-07 0.102297)
(-7.08417e-07 4.76278e-07 0.102297)
(6.96178e-07 4.61283e-07 0.102297)
(-7.09918e-07 4.78852e-07 0.102297)
(-4.14745e-05 4.14376e-05 0.102252)
(4.33243e-05 -4.32813e-05 0.102254)
(4.52522e-07 6.9236e-07 0.102297)
(4.6787e-07 -7.01522e-07 0.102297)
(4.41824e-07 6.85022e-07 0.102297)
(4.61593e-07 -6.95382e-07 0.102297)
(-4.65911e-07 -6.9622e-07 0.102297)
(-4.42014e-07 6.93259e-07 0.102297)
(-4.60962e-07 -6.92979e-07 0.102297)
(4.1436e-05 -4.14839e-05 0.102252)
(-4.32963e-05 4.33318e-05 0.102254)
(-6.81282e-07 -4.45702e-07 0.102297)
(6.78231e-07 -4.41312e-07 0.102297)
(-6.77879e-07 -4.40843e-07 0.102297)
(4.33065e-05 4.33279e-05 0.102254)
(4.14582e-05 4.1444e-05 0.102252)
(-4.33169e-05 -4.32951e-05 0.102254)
(6.97951e-07 4.70574e-07 0.102297)
(-7.10881e-07 4.74579e-07 0.102297)
(7.00012e-07 4.61042e-07 0.102297)
(-7.05578e-07 4.71233e-07 0.102297)
(-4.14676e-05 4.14451e-05 0.102252)
(4.332e-05 -4.3296e-05 0.102254)
(4.50568e-07 6.89295e-07 0.102297)
(4.66536e-07 -7.00444e-07 0.102297)
(4.467e-07 6.85643e-07 0.102297)
(4.67782e-07 -7.01217e-07 0.102297)
(-4.64467e-07 -6.96408e-07 0.102297)
(-4.49334e-07 6.88309e-07 0.102297)
(-4.67461e-07 -6.99676e-07 0.102297)
(4.14332e-05 -4.14803e-05 0.102252)
(-4.32891e-05 4.33249e-05 0.102254)
(-6.81456e-07 -4.45204e-07 0.102297)
(6.83852e-07 -4.5016e-07 0.102297)
(-6.82448e-07 -4.48874e-07 0.102297)
(4.33008e-05 4.33206e-05 0.102254)
(4.14627e-05 4.14462e-05 0.102252)
(-4.33179e-05 -4.32941e-05 0.102254)
(7.03168e-07 4.75032e-07 0.102297)
(-7.09945e-07 4.74682e-07 0.102297)
(6.99916e-07 4.61508e-07 0.102297)
(-7.03332e-07 4.68541e-07 0.102297)
(-4.14702e-05 4.14356e-05 0.102252)
(4.33243e-05 -4.32976e-05 0.102254)
(4.55512e-07 6.90454e-07 0.102297)
(4.72052e-07 -7.0584e-07 0.102297)
(4.46333e-07 6.86404e-07 0.102297)
(4.65677e-07 -6.96889e-07 0.102297)
(-4.70351e-07 -7.02043e-07 0.102297)
(-4.45974e-07 6.88499e-07 0.102297)
(-4.61695e-07 -6.94423e-07 0.102297)
(4.14402e-05 -4.14869e-05 0.102252)
(-4.32931e-05 4.33298e-05 0.102254)
(-6.84923e-07 -4.51675e-07 0.102297)
(6.8117e-07 -4.4382e-07 0.102297)
(-6.77627e-07 -4.41886e-07 0.102297)
(4.33067e-05 4.3327e-05 0.102254)
(4.14613e-05 4.14443e-05 0.102252)
(-4.33227e-05 -4.32851e-05 0.102254)
(6.98848e-07 4.72164e-07 0.102297)
(-7.04229e-07 4.703e-07 0.102297)
(6.99409e-07 4.68813e-07 0.102297)
(-7.05831e-07 4.76742e-07 0.102297)
(-4.1465e-05 4.14357e-05 0.102252)
(4.3327e-05 -4.32816e-05 0.102254)
(4.51899e-07 6.90528e-07 0.102297)
(4.67291e-07 -6.9795e-07 0.102297)
(4.42263e-07 6.91712e-07 0.102297)
(4.64442e-07 -6.92606e-07 0.102297)
(-4.6148e-07 -6.94095e-07 0.102297)
(-4.43108e-07 6.96537e-07 0.102297)
(-4.61469e-07 -6.92389e-07 0.102297)
(4.14349e-05 -4.14806e-05 0.102252)
(-4.32949e-05 4.33345e-05 0.102254)
(-6.77922e-07 -4.41118e-07 0.102297)
(6.79811e-07 -4.39766e-07 0.102297)
(-6.76769e-07 -4.39495e-07 0.102297)
(4.33073e-05 4.33291e-05 0.102254)
(4.14605e-05 4.14589e-05 0.102252)
(-4.33269e-05 -4.32858e-05 0.102254)
(7.03699e-07 4.83432e-07 0.102297)
(-7.11154e-07 4.85608e-07 0.102297)
(7.02223e-07 4.60882e-07 0.102297)
(-6.95138e-07 4.69176e-07 0.102297)
(-4.14679e-05 4.14526e-05 0.102252)
(4.33296e-05 -4.32946e-05 0.102254)
(4.49825e-07 6.98421e-07 0.102297)
(4.67837e-07 -6.9734e-07 0.102297)
(4.43087e-07 6.90501e-07 0.102297)
(4.63345e-07 -6.93666e-07 0.102297)
(-4.66327e-07 -6.94866e-07 0.102297)
(-4.43799e-07 6.84455e-07 0.102297)
(-4.69942e-07 -6.92126e-07 0.102297)
(4.14354e-05 -4.14787e-05 0.102252)
(-4.32939e-05 4.33323e-05 0.102254)
(-6.79402e-07 -4.44884e-07 0.102297)
(6.80574e-07 -4.40359e-07 0.102297)
(-6.73479e-07 -4.51113e-07 0.102297)
(4.33052e-05 4.33293e-05 0.102254)
(4.14635e-05 4.14513e-05 0.102252)
(-4.33302e-05 -4.32923e-05 0.102254)
(7.06485e-07 4.65675e-07 0.102297)
(-6.86196e-07 4.62903e-07 0.102297)
(7.04192e-07 4.76624e-07 0.102297)
(-7.01898e-07 4.74905e-07 0.102297)
(-4.1451e-05 4.14208e-05 0.102252)
(4.33183e-05 -4.32955e-05 0.102254)
(4.50953e-07 6.899e-07 0.102297)
(4.65957e-07 -6.97535e-07 0.102297)
(4.53257e-07 6.80739e-07 0.102297)
(4.63225e-07 -6.94207e-07 0.102297)
(-4.72366e-07 -6.94803e-07 0.102297)
(-4.4899e-07 6.84659e-07 0.102297)
(-4.6143e-07 -6.95234e-07 0.102297)
(4.14346e-05 -4.14793e-05 0.102252)
(-4.32942e-05 4.33323e-05 0.102254)
(-6.7565e-07 -4.55232e-07 0.102297)
(6.8101e-07 -4.40682e-07 0.102297)
(-6.75769e-07 -4.44861e-07 0.102297)
(4.33061e-05 4.33263e-05 0.102254)
(4.14636e-05 4.14396e-05 0.102252)
(-4.33281e-05 -4.32886e-05 0.102254)
(7.11805e-07 4.79587e-07 0.102297)
(-7.04772e-07 4.71242e-07 0.102297)
(6.99372e-07 4.64911e-07 0.102297)
(-6.99797e-07 4.68739e-07 0.102297)
(-4.14667e-05 4.14351e-05 0.102252)
(4.33271e-05 -4.32979e-05 0.102254)
(4.60568e-07 6.86128e-07 0.102297)
(4.68056e-07 -6.98941e-07 0.102297)
(4.46655e-07 6.8392e-07 0.102297)
(4.6519e-07 -6.97406e-07 0.102297)
(-4.63022e-07 -6.96949e-07 0.102297)
(-4.46849e-07 6.82741e-07 0.102297)
(-4.61309e-07 -6.94171e-07 0.102297)
(4.14347e-05 -4.14796e-05 0.102252)
(-4.32924e-05 4.33286e-05 0.102254)
(-6.78754e-07 -4.46201e-07 0.102297)
(6.81474e-07 -4.44174e-07 0.102297)
(-6.76138e-07 -4.44301e-07 0.102297)
(4.33055e-05 4.33258e-05 0.102254)
(4.14686e-05 4.14365e-05 0.102252)
(-4.33258e-05 -4.32905e-05 0.102254)
(7.0095e-07 4.62596e-07 0.102297)
(-7.05308e-07 4.69949e-07 0.102297)
(7.00358e-07 4.63826e-07 0.102297)
(-7.03386e-07 4.67665e-07 0.102297)
(-4.14598e-05 4.14326e-05 0.102252)
(4.33224e-05 -4.32974e-05 0.102254)
(4.50881e-07 6.84986e-07 0.102297)
(4.67976e-07 -7.01401e-07 0.102297)
(4.44804e-07 6.82572e-07 0.102297)
(4.64952e-07 -6.98825e-07 0.102297)
(-4.63474e-07 -6.96912e-07 0.102297)
(-4.46003e-07 6.83645e-07 0.102297)
(-4.62521e-07 -6.98232e-07 0.102297)
(4.14358e-05 -4.14826e-05 0.102252)
(-4.3292e-05 4.33276e-05 0.102254)
(-6.79142e-07 -4.46527e-07 0.102297)
(6.81806e-07 -4.45854e-07 0.102297)
(-6.79945e-07 -4.46133e-07 0.102297)
(4.33046e-05 4.33229e-05 0.102254)
(4.14715e-05 4.14373e-05 0.102252)
(-4.33236e-05 -4.32898e-05 0.102254)
(7.04506e-07 4.66063e-07 0.102297)
(-7.06668e-07 4.69425e-07 0.102297)
(7.02674e-07 4.66606e-07 0.102297)
(-7.06378e-07 4.71472e-07 0.102297)
(-4.14637e-05 4.14325e-05 0.102252)
(4.33197e-05 -4.32936e-05 0.102254)
(4.53188e-07 6.87294e-07 0.102297)
(4.68643e-07 -7.02971e-07 0.102297)
(4.47987e-07 6.84212e-07 0.102297)
(4.66652e-07 -6.99477e-07 0.102297)
(-4.6466e-07 -7.00397e-07 0.102297)
(-4.48544e-07 6.86872e-07 0.102297)
(-4.64353e-07 -6.98976e-07 0.102297)
(4.14365e-05 -4.14835e-05 0.102252)
(-4.32909e-05 4.33272e-05 0.102254)
(-6.82306e-07 -4.47685e-07 0.102297)
(6.83146e-07 -4.4739e-07 0.102297)
(-6.80197e-07 -4.44783e-07 0.102297)
(4.33035e-05 4.33228e-05 0.102254)
(4.14739e-05 4.14374e-05 0.102252)
(-4.33246e-05 -4.32917e-05 0.102254)
(7.05852e-07 4.66749e-07 0.102297)
(-7.0914e-07 4.71889e-07 0.102297)
(7.02145e-07 4.65083e-07 0.102297)
(-7.0375e-07 4.69058e-07 0.102297)
(-4.14668e-05 4.14362e-05 0.102252)
(4.33217e-05 -4.32974e-05 0.102254)
(4.55795e-07 6.87183e-07 0.102297)
(4.69832e-07 -7.02691e-07 0.102297)
(4.46667e-07 6.81643e-07 0.102297)
(4.65261e-07 -6.97413e-07 0.102297)
(-4.66718e-07 -7.00877e-07 0.102297)
(-4.45512e-07 6.83786e-07 0.102297)
(-4.61336e-07 -6.96141e-07 0.102297)
(4.14376e-05 -4.14839e-05 0.102252)
(-4.32924e-05 4.33288e-05 0.102254)
(-6.82556e-07 -4.48832e-07 0.102297)
(6.81241e-07 -4.45396e-07 0.102297)
(-6.77273e-07 -4.44291e-07 0.102297)
(4.33057e-05 4.33245e-05 0.102254)
(4.14724e-05 4.14359e-05 0.102252)
(-4.33276e-05 -4.32901e-05 0.102254)
(7.04774e-07 4.64764e-07 0.102297)
(-7.06262e-07 4.69103e-07 0.102297)
(6.99809e-07 4.65003e-07 0.102297)
(-7.034e-07 4.68661e-07 0.102297)
(-4.14644e-05 4.14322e-05 0.102252)
(4.33226e-05 -4.32971e-05 0.102254)
(4.53152e-07 6.84947e-07 0.102297)
(4.67958e-07 -7.01213e-07 0.102297)
(4.42853e-07 6.82825e-07 0.102297)
(4.64608e-07 -6.97953e-07 0.102297)
(-4.63676e-07 -6.98656e-07 0.102297)
(-4.44134e-07 6.83301e-07 0.102297)
(-4.61882e-07 -6.98382e-07 0.102297)
(4.14358e-05 -4.14823e-05 0.102252)
(-4.32933e-05 4.33288e-05 0.102254)
(-6.80299e-07 -4.47822e-07 0.102297)
(6.80641e-07 -4.44891e-07 0.102297)
(-6.79589e-07 -4.46063e-07 0.102297)
(4.33041e-05 4.33229e-05 0.102254)
(4.14699e-05 4.14376e-05 0.102252)
(-4.33279e-05 -4.32923e-05 0.102254)
(7.05552e-07 4.66908e-07 0.102297)
(-7.06692e-07 4.70494e-07 0.102297)
(6.92842e-07 4.61446e-07 0.102297)
(-7.02466e-07 4.66731e-07 0.102297)
(-4.14641e-05 4.14329e-05 0.102252)
(4.33235e-05 -4.32981e-05 0.102254)
(4.50569e-07 6.84129e-07 0.102297)
(4.68457e-07 -7.02133e-07 0.102297)
(4.43969e-07 6.85607e-07 0.102297)
(4.6348e-07 -6.96883e-07 0.102297)
(-4.63933e-07 -6.9962e-07 0.102297)
(-4.44087e-07 6.82513e-07 0.102297)
(-4.60957e-07 -6.96974e-07 0.102297)
(4.14353e-05 -4.14827e-05 0.102252)
(-4.32935e-05 4.33293e-05 0.102254)
(-6.81329e-07 -4.47797e-07 0.102297)
(6.80779e-07 -4.46132e-07 0.102297)
(-6.78404e-07 -4.45781e-07 0.102297)
(4.33051e-05 4.33242e-05 0.102254)
(4.14685e-05 4.14351e-05 0.102252)
(-4.3327e-05 -4.32916e-05 0.102254)
(7.12059e-07 4.67103e-07 0.102297)
(-7.04257e-07 4.67578e-07 0.102297)
(6.85334e-07 4.57566e-07 0.102297)
(-7.02095e-07 4.6665e-07 0.102297)
(-4.1462e-05 4.14308e-05 0.102252)
(4.33236e-05 -4.3298e-05 0.102254)
(4.46896e-07 6.7652e-07 0.102297)
(4.64629e-07 -6.99519e-07 0.102297)
(4.47102e-07 6.92404e-07 0.102297)
(4.62813e-07 -6.94851e-07 0.102297)
(-4.61066e-07 -6.97243e-07 0.102297)
(-4.42276e-07 6.82385e-07 0.102297)
(-4.595e-07 -6.95188e-07 0.102297)
(4.14335e-05 -4.14806e-05 0.102252)
(-4.32959e-05 4.3332e-05 0.102254)
(-6.79081e-07 -4.45812e-07 0.102297)
(6.79313e-07 -4.42765e-07 0.102297)
(-6.76597e-07 -4.42662e-07 0.102297)
(4.33075e-05 4.33277e-05 0.102254)
(4.14683e-05 4.14367e-05 0.102252)
(-4.33182e-05 -4.32847e-05 0.102254)
(7.19997e-07 4.70591e-07 0.102297)
(-7.05263e-07 4.6834e-07 0.102297)
(6.71221e-07 4.52118e-07 0.102297)
(-7.01363e-07 4.67437e-07 0.102297)
(-4.14631e-05 4.14321e-05 0.102252)
(4.33175e-05 -4.32909e-05 0.102254)
(4.44035e-07 6.70848e-07 0.102297)
(4.65081e-07 -6.99344e-07 0.102297)
(4.55311e-07 7.06161e-07 0.102297)
(4.65252e-07 -6.96841e-07 0.102297)
(-4.61119e-07 -6.973e-07 0.102297)
(-4.43165e-07 6.83243e-07 0.102297)
(-4.62221e-07 -6.96629e-07 0.102297)
(4.14339e-05 -4.14806e-05 0.102252)
(-4.32884e-05 4.33252e-05 0.102254)
(-6.7957e-07 -4.44513e-07 0.102297)
(6.8186e-07 -4.43525e-07 0.102297)
(-6.79177e-07 -4.44646e-07 0.102297)
(4.33009e-05 4.33209e-05 0.102254)
(4.14594e-05 4.14339e-05 0.102252)
(-4.3302e-05 -4.32806e-05 0.102254)
(7.38881e-07 4.78696e-07 0.102297)
(-7.05738e-07 4.67686e-07 0.102297)
(6.42361e-07 4.42361e-07 0.102297)
(-6.99706e-07 4.68196e-07 0.102297)
(-4.14564e-05 4.14264e-05 0.102252)
(4.33071e-05 -4.32768e-05 0.102254)
(4.35601e-07 6.58091e-07 0.102297)
(4.66588e-07 -6.97847e-07 0.102297)
(4.64885e-07 7.3045e-07 0.102297)
(4.59363e-07 -6.91011e-07 0.102297)
(-4.6273e-07 -6.95537e-07 0.102297)
(-4.41042e-07 6.84051e-07 0.102297)
(-4.56897e-07 -6.90325e-07 0.102297)
(4.14316e-05 -4.14772e-05 0.102252)
(-4.32737e-05 4.33121e-05 0.102254)
(-6.79076e-07 -4.45611e-07 0.102297)
(6.76835e-07 -4.35507e-07 0.102297)
(-6.74829e-07 -4.37274e-07 0.102297)
(4.32873e-05 4.33103e-05 0.102254)
(4.14192e-05 4.14299e-05 0.102252)
(7.63609e-07 4.94756e-07 0.102297)
(-7.01169e-07 4.67312e-07 0.102297)
(-4.14373e-05 4.1409e-05 0.102252)
(4.17581e-07 6.3022e-07 0.102297)
(4.5953e-07 -6.97967e-07 0.102297)
(-4.57632e-07 -6.95198e-07 0.102297)
(4.13952e-05 -4.1439e-05 0.102252)
(-6.81358e-07 -4.37444e-07 0.102297)
(-2.49247e-07 -2.52711e-07 0.0999987)
(1.65421e-05 1.65371e-05 0.100003)
(-4.37192e-07 1.38103e-05 0.1)
(1.38195e-05 -4.40344e-07 0.1)
(-4.60664e-05 5.49205e-06 0.100008)
(-1.50267e-05 1.49471e-05 0.1)
(-0.000127258 6.04968e-05 0.100059)
(-1.29672e-05 -8.29842e-07 0.0999957)
(5.48802e-06 -4.60508e-05 0.100008)
(1.49486e-05 -1.50295e-05 0.1)
(-8.26752e-07 -1.29659e-05 0.0999957)
(6.05072e-05 -0.000127191 0.100059)
(-1.80686e-05 -1.80706e-05 0.100003)
(-0.000135283 -8.15707e-05 0.100055)
(-8.15843e-05 -0.000135268 0.100055)
(-2.43833e-05 0.000138171 0.100715)
(0.000204698 0.000297283 0.0993517)
(2.33726e-05 0.000302071 0.10052)
(-8.84045e-05 0.000212115 0.0991492)
(-0.000330857 0.000891288 0.0976698)
(-8.55291e-05 0.000336473 0.0957496)
(0.000137996 -2.44847e-05 0.100715)
(0.000297862 0.000203448 0.0993523)
(0.000302897 2.32829e-05 0.10052)
(0.000212315 -8.81144e-05 0.0991498)
(-0.000106036 0.000105979 0.100293)
(0.000106017 -0.000106031 0.100293)
(-0.000105998 -0.000106032 0.100293)
(9.14459e-05 9.13598e-05 0.100744)
(-9.14082e-05 9.13759e-05 0.100744)
(9.14145e-05 -9.14442e-05 0.100744)
(-9.1393e-05 -9.14618e-05 0.100744)
(-0.000279487 6.73387e-07 0.100751)
(-0.000399705 0.000206007 0.100519)
(-0.000178074 3.69823e-05 0.100329)
(-0.000150459 9.48143e-05 0.100554)
(-0.000344681 1.97391e-05 0.10047)
(-0.00018162 0.000173457 0.100749)
(-0.00014984 3.38418e-05 0.100494)
(0.000890268 -0.00032915 0.0976688)
(0.000336641 -8.52753e-05 0.0957501)
(6.0741e-07 -0.000279388 0.100751)
(3.70173e-05 -0.000178069 0.100329)
(0.000206097 -0.000399646 0.100519)
(9.47507e-05 -0.000150441 0.100554)
(1.97995e-05 -0.000344581 0.10047)
(3.3897e-05 -0.000149799 0.100494)
(0.000173501 -0.000181591 0.100748)
(-0.000388815 -0.000136588 0.100375)
(-0.000136682 -0.00038904 0.100376)
(-0.000111816 -0.000111947 0.100654)
(2.34758e-05 -9.79101e-05 0.100576)
(-9.81612e-05 2.36026e-05 0.100576)
(-1.34087e-05 0.000191381 0.100858)
(-4.92982e-05 0.000250545 0.0983135)
(-1.36026e-05 0.000192594 0.100778)
(-4.05393e-05 0.000249214 0.0979293)
(-0.000140537 0.00033787 0.0926221)
(-0.000127992 0.000295033 0.0909796)
(0.000191329 -1.35445e-05 0.100858)