/*--------------------------------*- C++ -*----------------------------------*\
| =========                 |                                                 |
| \\      /  F ield         | OpenFOAM: The Open Source CFD Toolbox           |
|  \\    /   O peration     | Version:  v1912                                 |
|   \\  /    A nd           | Website:  www.openfoam.com                      |
|    \\/     M anipulation  |                                                 |
\*---------------------------------------------------------------------------*/
FoamFile
{
    version     2.0;
    format      ascii;
    class       volScalarField;
    location    "80";
    object      epsilon;
}
// * * * * * * * * * * * * * * * * * * * * * * * * * * * * * * * * * * * * * //

dimensions      [0 2 -3 0 0 0 0];


internalField   nonuniform List<scalar> 
57062
(
1.37481e-07
1.969e-07
1.96922e-07
2.71084e-07
1.37486e-07
1.96923e-07
1.96944e-07
2.71111e-07
1.37493e-07
1.96943e-07
1.96966e-07
2.71147e-07
1.375e-07
1.96961e-07
1.96985e-07
2.71182e-07
1.37505e-07
1.96981e-07
1.97004e-07
2.71225e-07
1.37509e-07
1.97003e-07
1.97023e-07
2.71263e-07
1.37516e-07
1.97023e-07
1.97042e-07
2.71295e-07
1.37524e-07
1.97038e-07
1.97058e-07
2.71331e-07
1.37526e-07
1.97053e-07
1.97074e-07
2.71369e-07
1.37521e-07
1.97072e-07
1.97089e-07
2.7141e-07
1.37513e-07
1.97086e-07
1.97096e-07
2.71442e-07
1.37508e-07
1.97089e-07
1.97102e-07
2.71465e-07
1.37502e-07
1.97089e-07
1.97105e-07
2.71478e-07
1.37492e-07
1.9708e-07
1.97098e-07
2.71471e-07
1.37474e-07
1.97062e-07
1.97085e-07
2.71445e-07
1.3746e-07
1.97034e-07
1.97066e-07
2.71388e-07
1.37406e-07
1.96946e-07
1.96991e-07
2.71284e-07
1.37374e-07
1.969e-07
1.96933e-07
2.71186e-07
1.37376e-07
1.96896e-07
1.96925e-07
2.71191e-07
1.37378e-07
1.96898e-07
1.96926e-07
2.71197e-07
1.37379e-07
1.96898e-07
1.96926e-07
2.71208e-07
1.37379e-07
1.96896e-07
1.96923e-07
2.71214e-07
1.37379e-07
1.96892e-07
1.96919e-07
2.71214e-07
1.3738e-07
1.96885e-07
1.96912e-07
2.71209e-07
1.37382e-07
1.96874e-07
1.96901e-07
2.71202e-07
1.37385e-07
1.96856e-07
1.96883e-07
2.71193e-07
1.37386e-07
1.96827e-07
1.96853e-07
2.71175e-07
1.37383e-07
1.96778e-07
1.96802e-07
2.71141e-07
1.37373e-07
1.96752e-07
1.96776e-07
2.71037e-07
1.35679e-07
1.88479e-07
1.88486e-07
2.58635e-07
2.70436e-07
1.9694e-07
1.96978e-07
2.70384e-07
1.96923e-07
1.96954e-07
1.96895e-07
1.96949e-07
2.70417e-07
1.96918e-07
1.96925e-07
2.70412e-07
2.71069e-07
2.70425e-07
1.96944e-07
1.96983e-07
1.96961e-07
1.97e-07
2.71037e-07
2.70399e-07
1.96927e-07
1.96959e-07
1.96946e-07
1.96981e-07
1.96955e-07
1.96918e-07
1.96975e-07
2.71049e-07
2.70403e-07
1.9693e-07
1.96938e-07
1.96949e-07
2.70433e-07
2.71086e-07
2.70471e-07
1.96966e-07
1.97005e-07
1.96984e-07
1.97019e-07
2.71059e-07
2.70433e-07
1.96951e-07
1.96986e-07
1.96969e-07
1.97007e-07
1.9698e-07
1.96938e-07
1.96996e-07
2.71063e-07
2.70449e-07
1.96954e-07
1.96961e-07
1.96971e-07
2.70471e-07
2.71132e-07
2.70511e-07
1.96988e-07
1.97023e-07
1.97005e-07
1.97036e-07
2.71094e-07
2.70472e-07
1.96973e-07
1.97012e-07
1.96991e-07
1.97029e-07
1.97e-07
1.96957e-07
1.97014e-07
2.71109e-07
2.7049e-07
1.96975e-07
1.9698e-07
1.96989e-07
2.70507e-07
2.71171e-07
2.70553e-07
1.97009e-07
1.9704e-07
1.97025e-07
1.97055e-07
2.71134e-07
2.70512e-07
1.96995e-07
1.97034e-07
1.97011e-07
1.97051e-07
1.97018e-07
1.96976e-07
1.97033e-07
2.7115e-07
2.70534e-07
1.96993e-07
1.97e-07
1.97008e-07
2.70548e-07
2.71212e-07
2.70576e-07
1.9703e-07
1.9706e-07
1.97045e-07
1.97075e-07
2.71176e-07
2.70548e-07
1.97015e-07
1.97056e-07
1.97029e-07
1.97074e-07
1.97037e-07
1.96998e-07
1.97053e-07
2.71194e-07
2.70568e-07
1.97013e-07
1.97019e-07
1.97029e-07
2.70589e-07
2.71234e-07
2.70607e-07
1.97049e-07
1.97079e-07
1.97063e-07
1.97095e-07
2.71207e-07
2.70585e-07
1.97032e-07
1.97078e-07
1.97045e-07
1.97094e-07
1.97057e-07
1.97019e-07
1.97072e-07
2.71228e-07
2.70613e-07
1.97034e-07
1.97038e-07
1.97048e-07
2.7062e-07
2.71267e-07
2.70633e-07
1.97066e-07
1.97099e-07
1.97077e-07
1.97115e-07
2.71245e-07
2.70619e-07
1.97048e-07
1.97098e-07
1.97057e-07
1.97109e-07
1.97076e-07
1.97034e-07
1.9709e-07
2.71272e-07
2.70643e-07
1.97052e-07
1.97054e-07
1.97065e-07
2.70655e-07
2.71293e-07
2.70666e-07
1.9708e-07
1.97119e-07
1.97091e-07
1.97133e-07
2.71282e-07
2.70658e-07
1.9706e-07
1.97112e-07
1.97069e-07
1.97123e-07
1.97094e-07
1.97048e-07
1.97106e-07
2.71305e-07
2.70681e-07
1.97069e-07
1.9707e-07
1.97081e-07
2.70692e-07
2.71328e-07
2.70707e-07
1.97095e-07
1.97138e-07
1.97108e-07
1.97153e-07
2.71323e-07
2.70701e-07
1.97073e-07
1.97127e-07
1.97085e-07
1.97139e-07
1.9711e-07
1.97068e-07
1.97124e-07
2.71344e-07
2.70715e-07
1.97085e-07
1.97086e-07
1.97098e-07
2.70731e-07
2.7137e-07
2.70743e-07
1.97111e-07
1.97158e-07
1.97121e-07
1.97171e-07
2.71366e-07
2.70741e-07
1.97088e-07
1.97142e-07
1.97097e-07
1.97149e-07
1.97127e-07
1.97083e-07
1.97139e-07
2.71376e-07
2.70743e-07
1.97102e-07
1.97094e-07
1.97113e-07
2.70765e-07
2.71405e-07
2.70766e-07
1.97124e-07
1.97174e-07
1.97129e-07
1.97179e-07
2.71405e-07
2.70764e-07
1.971e-07
1.97151e-07
1.97107e-07
1.97156e-07
1.97142e-07
1.97088e-07
1.97148e-07
2.71403e-07
2.70762e-07
1.97116e-07
1.971e-07
1.97124e-07
2.70789e-07
2.71425e-07
2.70774e-07
1.97129e-07
1.97179e-07
1.97133e-07
1.97181e-07
2.71426e-07
2.7077e-07
1.97107e-07
1.97157e-07
1.97111e-07
1.97162e-07
1.97148e-07
1.9709e-07
1.97152e-07
2.71422e-07
2.70773e-07
1.97125e-07
1.97106e-07
1.97128e-07
2.70803e-07
2.71432e-07
2.70771e-07
1.97133e-07
1.9718e-07
1.97134e-07
1.97177e-07
2.7143e-07
2.70761e-07
1.9711e-07
1.97162e-07
1.97109e-07
1.97164e-07
1.97151e-07
1.97085e-07
1.97149e-07
2.71432e-07
2.70775e-07
1.97127e-07
1.97102e-07
1.97124e-07
2.70798e-07
2.71428e-07
2.70758e-07
1.9713e-07
1.97172e-07
1.97116e-07
1.97157e-07
2.71417e-07
2.70737e-07
1.97106e-07
1.97161e-07
1.97098e-07
1.97152e-07
1.97146e-07
1.9707e-07
1.9713e-07
2.71431e-07
2.70762e-07
1.9712e-07
1.9709e-07
1.97107e-07
2.70776e-07
2.71411e-07
2.70723e-07
1.97108e-07
1.97148e-07
1.97093e-07
1.97131e-07
2.71391e-07
2.70692e-07
1.97091e-07
1.97144e-07
1.97077e-07
1.97129e-07
1.97122e-07
1.97045e-07
1.97103e-07
2.71415e-07
2.70725e-07
1.97099e-07
1.97071e-07
1.97082e-07
2.70724e-07
2.71374e-07
2.70651e-07
1.97087e-07
1.97121e-07
1.97035e-07
1.97059e-07
2.71342e-07
2.70601e-07
1.97072e-07
1.97123e-07
1.97019e-07
1.97071e-07
1.97093e-07
1.96969e-07
1.97025e-07
2.71375e-07
2.7065e-07
1.97073e-07
1.97015e-07
1.97007e-07
2.70631e-07
2.71292e-07
2.70542e-07
1.97011e-07
1.97034e-07
1.96959e-07
1.96987e-07
2.71241e-07
2.70496e-07
1.96994e-07
1.97044e-07
1.96941e-07
1.96989e-07
1.96999e-07
1.96905e-07
1.96953e-07
2.71291e-07
2.70537e-07
1.96981e-07
1.9694e-07
1.9693e-07
2.70524e-07
2.71189e-07
2.70521e-07
1.9695e-07
1.96981e-07
1.96943e-07
1.96976e-07
2.71147e-07
2.70491e-07
1.96933e-07
1.9698e-07
1.96925e-07
1.96972e-07
1.96947e-07
1.96896e-07
1.96944e-07
2.71184e-07
2.70518e-07
1.96924e-07
1.96925e-07
1.96919e-07
2.70521e-07
2.71177e-07
2.70529e-07
1.96942e-07
1.96976e-07
1.96943e-07
1.96977e-07
2.7115e-07
2.70496e-07
1.96925e-07
1.96972e-07
1.96925e-07
1.96972e-07
1.96943e-07
1.96896e-07
1.96946e-07
2.71174e-07
2.70526e-07
1.96919e-07
1.96924e-07
1.96921e-07
2.70526e-07
2.71184e-07
2.70534e-07
1.96943e-07
1.96977e-07
1.96945e-07
1.9698e-07
2.71152e-07
2.70502e-07
1.96925e-07
1.96972e-07
1.96927e-07
1.96975e-07
1.96946e-07
1.96896e-07
1.9695e-07
2.7118e-07
2.70532e-07
1.96921e-07
1.96924e-07
1.96924e-07
2.70535e-07
2.7119e-07
2.70534e-07
1.96945e-07
1.9698e-07
1.96942e-07
1.9698e-07
2.71159e-07
2.70502e-07
1.96927e-07
1.96975e-07
1.96924e-07
1.96976e-07
1.9695e-07
1.96894e-07
1.96951e-07
2.71187e-07
2.70534e-07
1.96924e-07
1.96922e-07
1.96925e-07
2.70541e-07
2.71189e-07
2.70531e-07
1.96943e-07
1.9698e-07
1.96938e-07
1.96976e-07
2.7116e-07
2.70499e-07
1.96924e-07
1.96976e-07
1.9692e-07
1.96972e-07
1.96951e-07
1.9689e-07
1.96948e-07
2.71187e-07
2.7053e-07
1.96926e-07
1.96918e-07
1.96922e-07
2.70541e-07
2.71188e-07
2.70528e-07
1.96938e-07
1.96976e-07
1.96931e-07
1.96969e-07
2.71156e-07
2.70498e-07
1.9692e-07
1.96973e-07
1.96913e-07
1.96965e-07
1.96948e-07
1.96884e-07
1.9694e-07
2.71183e-07
2.70527e-07
1.96922e-07
1.96911e-07
1.96915e-07
2.70537e-07
2.71183e-07
2.70521e-07
1.96931e-07
1.96969e-07
1.9692e-07
1.96957e-07
2.71154e-07
2.70494e-07
1.96913e-07
1.96965e-07
1.96901e-07
1.96954e-07
1.96941e-07
1.96873e-07
1.96929e-07
2.7118e-07
2.70522e-07
1.96915e-07
1.969e-07
1.96903e-07
2.70531e-07
2.71175e-07
2.70515e-07
1.9692e-07
1.96957e-07
1.96902e-07
1.96938e-07
2.71149e-07
2.70485e-07
1.96901e-07
1.96954e-07
1.96883e-07
1.96936e-07
1.96929e-07
1.96855e-07
1.96911e-07
2.71174e-07
2.70515e-07
1.96904e-07
1.96882e-07
1.96885e-07
2.70524e-07
2.71166e-07
2.70503e-07
1.96902e-07
1.96938e-07
1.96872e-07
1.96908e-07
2.71138e-07
2.70472e-07
1.96883e-07
1.96936e-07
1.96854e-07
1.96907e-07
1.96911e-07
1.96826e-07
1.96881e-07
2.71164e-07
2.70502e-07
1.96885e-07
1.96852e-07
1.96856e-07
2.70512e-07
2.71149e-07
2.70482e-07
1.96872e-07
1.96908e-07
1.96823e-07
1.96854e-07
2.7112e-07
2.70451e-07
1.96854e-07
1.96907e-07
1.96804e-07
1.96856e-07
1.96881e-07
1.96775e-07
1.96829e-07
2.71147e-07
2.70485e-07
1.96856e-07
1.968e-07
1.96802e-07
2.70491e-07
2.71119e-07
2.70405e-07
1.96825e-07
1.96854e-07
1.96665e-07
1.96691e-07
2.7109e-07
2.70375e-07
1.96806e-07
1.96857e-07
1.96642e-07
1.96693e-07
1.9683e-07
1.96617e-07
1.96673e-07
2.71119e-07
2.7041e-07
1.96804e-07
1.96638e-07
1.96639e-07
2.70413e-07
2.71015e-07
2.65111e-07
1.96801e-07
1.96827e-07
1.91885e-07
1.9191e-07
2.70988e-07
2.65094e-07
1.96778e-07
1.96832e-07
1.91875e-07
1.91901e-07
1.96811e-07
1.91859e-07
1.9189e-07
2.71016e-07
2.65111e-07
1.96775e-07
1.91867e-07
1.9187e-07
2.65126e-07
2.58611e-07
1.88499e-07
1.88519e-07
2.586e-07
1.88491e-07
1.88511e-07
1.35678e-07
1.35676e-07
1.35676e-07
1.88502e-07
2.58613e-07
1.88488e-07
1.37481e-07
1.37491e-07
1.37498e-07
1.37491e-07
2.95134e-06
8.76587e-06
2.95187e-06
8.7658e-06
1.86224e-05
1.86238e-05
2.95175e-06
8.76796e-06
2.95223e-06
8.76786e-06
1.37499e-07
1.37498e-07
1.37496e-07
1.37485e-07
1.37498e-07
1.37495e-07
1.37496e-07
7.66992e-07
2.32349e-06
1.53639e-07
1.96905e-07
7.6758e-07
2.32234e-06
1.53645e-07
1.86228e-05
1.86241e-05
7.67042e-07
1.53645e-07
2.32375e-06
1.96927e-07
7.67637e-07
1.53649e-07
2.32264e-06
4.75064e-06
4.75257e-06
2.70427e-07
4.75024e-06
4.75218e-06
2.95166e-06
8.7655e-06
2.95214e-06
8.76545e-06
1.86211e-05
1.86227e-05
2.95201e-06
8.76753e-06
2.95241e-06
8.76749e-06
1.37503e-07
1.37499e-07
1.37504e-07
1.37493e-07
1.37501e-07
1.37497e-07
1.37503e-07
7.66914e-07
2.32338e-06
1.5365e-07
1.96928e-07
7.6738e-07
2.32234e-06
1.53656e-07
1.86212e-05
1.86229e-05
7.66933e-07
1.53652e-07
2.32363e-06
1.9695e-07
7.67421e-07
1.53658e-07
2.32264e-06
4.75068e-06
4.75254e-06
2.70463e-07
4.75034e-06
4.7522e-06
2.95201e-06
8.76523e-06
2.95248e-06
8.76526e-06
1.86204e-05
1.86223e-05
2.95232e-06
8.76727e-06
2.95273e-06
8.76731e-06
1.37505e-07
1.37502e-07
1.37508e-07
1.375e-07
1.37503e-07
1.37501e-07
1.37507e-07
7.66996e-07
2.32349e-06
1.53661e-07
1.96947e-07
7.67444e-07
2.32248e-06
1.53667e-07
1.86205e-05
1.86225e-05
7.66999e-07
1.53662e-07
2.32376e-06
1.9697e-07
7.67453e-07
1.53669e-07
2.32281e-06
4.75097e-06
4.75288e-06
2.70497e-07
4.75077e-06
4.75265e-06
2.95234e-06
8.76519e-06
2.95281e-06
8.76535e-06
1.86204e-05
1.86224e-05
2.95267e-06
8.76726e-06
2.95307e-06
8.76737e-06
1.37508e-07
1.37509e-07
1.37514e-07
1.37505e-07
1.37509e-07
1.37509e-07
1.37513e-07
7.6703e-07
2.32366e-06
1.53672e-07
1.96965e-07
7.6749e-07
2.32268e-06
1.53678e-07
1.86206e-05
1.86227e-05
7.67047e-07
1.53673e-07
2.32394e-06
1.96989e-07
7.67512e-07
1.53679e-07
2.32299e-06
4.75144e-06
4.75333e-06
2.70533e-07
4.75115e-06
4.75314e-06
2.95264e-06
8.76549e-06
2.95312e-06
8.76569e-06
1.86207e-05
1.86228e-05
2.95297e-06
8.76745e-06
2.95339e-06
8.76764e-06
1.37516e-07
1.37516e-07
1.37519e-07
1.37508e-07
1.37516e-07
1.37515e-07
1.37518e-07
7.67089e-07
2.32389e-06
1.53682e-07
1.96986e-07
7.67533e-07
2.32292e-06
1.53688e-07
1.86209e-05
1.86231e-05
7.67104e-07
1.53683e-07
2.32412e-06
1.97008e-07
7.67559e-07
1.5369e-07
2.32316e-06
4.75166e-06
4.75364e-06
2.70577e-07
4.75134e-06
4.75337e-06
2.95289e-06
8.76577e-06
2.9534e-06
8.76594e-06
1.86211e-05
1.86232e-05
2.95325e-06
8.76775e-06
2.95368e-06
8.76791e-06
1.37523e-07
1.37522e-07
1.37527e-07
1.37516e-07
1.37522e-07
1.37522e-07
1.37526e-07
7.67183e-07
2.32412e-06
1.53693e-07
1.97008e-07
7.67619e-07
2.32314e-06
1.53699e-07
1.86213e-05
1.86235e-05
7.67188e-07
1.53693e-07
2.32428e-06
1.97028e-07
7.67637e-07
1.537e-07
2.32331e-06
4.7518e-06
4.75387e-06
2.7061e-07
4.75148e-06
4.75354e-06
2.95307e-06
8.76598e-06
2.95361e-06
8.76611e-06
1.86215e-05
1.86236e-05
2.95346e-06
8.76795e-06
2.95391e-06
8.76809e-06
1.3753e-07
1.37529e-07
1.37535e-07
1.37523e-07
1.37531e-07
1.3753e-07
1.37534e-07
7.67271e-07
2.32428e-06
1.53704e-07
1.97027e-07
7.67713e-07
2.32323e-06
1.5371e-07
1.86217e-05
1.86239e-05
7.67275e-07
1.53703e-07
2.32438e-06
1.97045e-07
7.67722e-07
1.5371e-07
2.32339e-06
4.75198e-06
4.75389e-06
2.70639e-07
4.75162e-06
4.75354e-06
2.95321e-06
8.76611e-06
2.95374e-06
8.76623e-06
1.8622e-05
1.86241e-05
2.95361e-06
8.76814e-06
2.95407e-06
8.76827e-06
1.37539e-07
1.37538e-07
1.37541e-07
1.37528e-07
1.37539e-07
1.37537e-07
1.37537e-07
7.67344e-07
2.3243e-06
1.53715e-07
1.97041e-07
7.67789e-07
2.32324e-06
1.53721e-07
1.8622e-05
1.86243e-05
7.67349e-07
1.53713e-07
2.32445e-06
1.97061e-07
7.67793e-07
1.5372e-07
2.32344e-06
4.75204e-06
4.75394e-06
2.70676e-07
4.75167e-06
4.75357e-06
2.95333e-06
8.76624e-06
2.95389e-06
8.76636e-06
1.86225e-05
1.86247e-05
2.95371e-06
8.76825e-06
2.95423e-06
8.76834e-06
1.37546e-07
1.3754e-07
1.37542e-07
1.37522e-07
1.37543e-07
1.37532e-07
1.37542e-07
7.67417e-07
2.3243e-06
1.53725e-07
1.97057e-07
7.67863e-07
2.32324e-06
1.53731e-07
1.86225e-05
1.86248e-05
7.67424e-07
1.53721e-07
2.32448e-06
1.97078e-07
7.67872e-07
1.53726e-07
2.32346e-06
4.75206e-06
4.75395e-06
2.70714e-07
4.75168e-06
4.75358e-06
2.95336e-06
8.76637e-06
2.95396e-06
8.76649e-06
1.86231e-05
1.86252e-05
2.95376e-06
8.76834e-06
2.95429e-06
8.76847e-06
1.37542e-07
1.37531e-07
1.37542e-07
1.37515e-07
1.37532e-07
1.3752e-07
1.37538e-07
7.6747e-07
2.3243e-06
1.53733e-07
1.97075e-07
7.67926e-07
2.32323e-06
1.53736e-07
1.8623e-05
1.86252e-05
7.67476e-07
1.53723e-07
2.3245e-06
1.97091e-07
7.67937e-07
1.53727e-07
2.32348e-06
4.75206e-06
4.75397e-06
2.70755e-07
4.75166e-06
4.75358e-06
2.95333e-06
8.76647e-06
2.95395e-06
8.76658e-06
1.86236e-05
1.86256e-05
2.95376e-06
8.7685e-06
2.95431e-06
8.76862e-06
1.37531e-07
1.37519e-07
1.37537e-07
1.37509e-07
1.37521e-07
1.37512e-07
1.37526e-07
7.67507e-07
2.32428e-06
1.53727e-07
1.97087e-07
7.67967e-07
2.32321e-06
1.53726e-07
1.86234e-05
1.86256e-05
7.67508e-07
1.53722e-07
2.32452e-06
1.97096e-07
7.67971e-07
1.53721e-07
2.32351e-06
4.752e-06
4.75388e-06
2.70785e-07
4.75159e-06
4.75349e-06
2.95328e-06
8.76655e-06
2.95391e-06
8.76665e-06
1.86238e-05
1.86258e-05
2.95371e-06
8.7686e-06
2.95428e-06
8.76867e-06
1.3752e-07
1.37512e-07
1.37525e-07
1.37503e-07
1.37512e-07
1.37506e-07
1.37517e-07
7.67526e-07
2.32425e-06
1.53717e-07
1.97089e-07
7.67995e-07
2.32317e-06
1.53717e-07
1.86236e-05
1.86257e-05
7.67531e-07
1.53712e-07
2.32453e-06
1.97103e-07
7.68001e-07
1.53713e-07
2.32349e-06
4.75194e-06
4.75384e-06
2.70804e-07
4.75155e-06
4.75345e-06
2.95318e-06
8.76658e-06
2.95382e-06
8.76666e-06
1.86238e-05
1.86258e-05
2.95361e-06
8.76859e-06
2.9542e-06
8.76865e-06
1.37511e-07
1.37505e-07
1.37516e-07
1.37495e-07
1.37502e-07
1.37496e-07
1.37506e-07
7.67521e-07
2.32421e-06
1.53709e-07
1.97089e-07
7.67999e-07
2.32313e-06
1.53708e-07
1.86237e-05
1.86257e-05
7.67517e-07
1.53705e-07
2.32448e-06
1.97105e-07
7.68003e-07
1.53705e-07
2.32344e-06
4.7519e-06
4.75376e-06
2.70811e-07
4.75149e-06
4.75338e-06
2.95312e-06
8.76658e-06
2.95372e-06
8.76669e-06
1.86237e-05
1.86256e-05
2.95355e-06
8.76859e-06
2.95409e-06
8.76869e-06
1.37499e-07
1.37494e-07
1.37503e-07
1.3748e-07
1.37481e-07
1.3748e-07
1.37485e-07
7.67521e-07
2.32419e-06
1.53699e-07
1.97077e-07
7.6799e-07
2.32313e-06
1.53697e-07
1.86236e-05
1.86256e-05
7.67493e-07
1.53695e-07
2.32445e-06
1.97095e-07
7.67977e-07
1.53694e-07
2.32343e-06
4.75183e-06
4.75373e-06
2.708e-07
4.75144e-06
4.75336e-06
2.95336e-06
8.76663e-06
2.95387e-06
8.76673e-06
1.86234e-05
1.86253e-05
2.9538e-06
8.76865e-06
2.95425e-06
8.76874e-06
1.37478e-07
1.37477e-07
1.37481e-07
1.37463e-07
1.3746e-07
1.37462e-07
1.37464e-07
7.67545e-07
2.32423e-06
1.53681e-07
1.97056e-07
7.68014e-07
2.3232e-06
1.53679e-07
1.86233e-05
1.86252e-05
7.67505e-07
1.53681e-07
2.32448e-06
1.9708e-07
7.67976e-07
1.53679e-07
2.32349e-06
4.75187e-06
4.75374e-06
2.70767e-07
4.75153e-06
4.75342e-06
2.95349e-06
8.76657e-06
2.95409e-06
8.76661e-06
1.8623e-05
1.86249e-05
2.95392e-06
8.76859e-06
2.95446e-06
8.76862e-06
1.37457e-07
1.37461e-07
1.37462e-07
1.37432e-07
1.37416e-07
1.37436e-07
1.37421e-07
7.6751e-07
2.32432e-06
1.53661e-07
1.97016e-07
7.68012e-07
2.32326e-06
1.53654e-07
1.86228e-05
1.86249e-05
7.67483e-07
1.53664e-07
2.32457e-06
1.97055e-07
7.67984e-07
1.53661e-07
2.32357e-06
4.75202e-06
4.75389e-06
2.70699e-07
4.75163e-06
4.7535e-06
2.95351e-06
8.76641e-06
2.95415e-06
8.76647e-06
1.86227e-05
1.86248e-05
2.95393e-06
8.76842e-06
2.95452e-06
8.76845e-06
1.37397e-07
1.37414e-07
1.374e-07
1.37374e-07
1.37377e-07
1.37381e-07
1.37377e-07
7.67409e-07
2.32432e-06
1.53589e-07
1.96926e-07
7.67931e-07
2.32323e-06
1.53576e-07
1.86225e-05
1.86247e-05
7.67378e-07
1.53605e-07
2.32461e-06
1.96968e-07
7.67908e-07
1.53588e-07
2.32357e-06
4.75205e-06
4.75389e-06
2.70573e-07
4.7516e-06
4.75347e-06
2.95343e-06
8.76631e-06
2.95412e-06
8.76643e-06
1.86227e-05
1.86249e-05
2.95386e-06
8.76829e-06
2.9545e-06
8.76848e-06
1.37382e-07
1.37386e-07
1.37383e-07
1.37377e-07
1.37379e-07
1.37384e-07
1.37381e-07
7.67316e-07
2.32426e-06
1.5356e-07
1.96897e-07
7.6783e-07
2.32317e-06
1.53565e-07
1.86224e-05
1.86247e-05
7.67269e-07
1.53561e-07
2.32458e-06
1.96927e-07
7.67793e-07
1.53563e-07
2.32353e-06
4.75201e-06
4.75384e-06
2.70513e-07
4.75156e-06
4.75342e-06
2.95334e-06
8.76638e-06
2.95404e-06
8.76656e-06
1.86227e-05
1.86251e-05
2.95376e-06
8.76845e-06
2.9544e-06
8.76865e-06
1.37384e-07
1.37388e-07
1.37385e-07
1.37378e-07
1.37382e-07
1.37386e-07
1.37384e-07
7.67266e-07
2.3242e-06
1.53562e-07
1.96895e-07
7.67767e-07
2.32312e-06
1.53565e-07
1.86223e-05
1.86248e-05
7.67205e-07
1.53562e-07
2.32452e-06
1.96924e-07
7.67715e-07
1.53566e-07
2.32347e-06
4.75202e-06
4.75388e-06
2.70524e-07
4.7516e-06
4.75349e-06
2.95329e-06
8.76645e-06
2.95399e-06
8.76667e-06
1.86226e-05
1.86251e-05
2.95368e-06
8.76863e-06
2.95433e-06
8.76888e-06
1.37387e-07
1.37392e-07
1.37389e-07
1.37379e-07
1.37385e-07
1.37389e-07
1.37386e-07
7.67249e-07
2.32416e-06
1.53563e-07
1.96896e-07
7.67747e-07
2.32307e-06
1.53568e-07
1.86222e-05
1.86249e-05
7.67176e-07
1.53563e-07
2.32447e-06
1.96924e-07
7.6768e-07
1.53568e-07
2.32341e-06
4.75208e-06
4.75394e-06
2.70534e-07
4.75152e-06
4.75341e-06
2.95324e-06
8.76654e-06
2.95395e-06
8.76682e-06
1.86222e-05
1.86253e-05
2.95361e-06
8.76879e-06
2.95428e-06
8.76909e-06
1.37389e-07
1.37394e-07
1.37392e-07
1.37379e-07
1.37387e-07
1.37392e-07
1.37389e-07
7.67229e-07
2.32411e-06
1.53565e-07
1.96895e-07
7.67737e-07
2.323e-06
1.53567e-07
1.86219e-05
1.86252e-05
7.67151e-07
1.53564e-07
2.32441e-06
1.96923e-07
7.67663e-07
1.53566e-07
2.32333e-06
4.75194e-06
4.75384e-06
2.70545e-07
4.75128e-06
4.75321e-06
2.95317e-06
8.76655e-06
2.95391e-06
8.76691e-06
1.86219e-05
1.86256e-05
2.95354e-06
8.7689e-06
2.95422e-06
8.76932e-06
1.37392e-07
1.37396e-07
1.37394e-07
1.37379e-07
1.37387e-07
1.37392e-07
1.3739e-07
7.67198e-07
2.32404e-06
1.53565e-07
1.96892e-07
7.67719e-07
2.32288e-06
1.53569e-07
1.86217e-05
1.86256e-05
7.67122e-07
1.53564e-07
2.32433e-06
1.96919e-07
7.67645e-07
1.53568e-07
2.3232e-06
4.75177e-06
4.75367e-06
2.7055e-07
4.75103e-06
4.75294e-06
2.9531e-06
8.76652e-06
2.95385e-06
8.76713e-06
1.86214e-05
1.86263e-05
2.95347e-06
8.76897e-06
2.95416e-06
8.76951e-06
1.37392e-07
1.37397e-07
1.37394e-07
1.3738e-07
1.37386e-07
1.37391e-07
1.37389e-07
7.67155e-07
2.32395e-06
1.53565e-07
1.96887e-07
7.67697e-07
2.32271e-06
1.53568e-07
1.86213e-05
1.86264e-05
7.67082e-07
1.53565e-07
2.32422e-06
1.96914e-07
7.67625e-07
1.53567e-07
2.32301e-06
4.75168e-06
4.75356e-06
2.70549e-07
4.75078e-06
4.75267e-06
2.95306e-06
8.7667e-06
2.95379e-06
8.76778e-06
1.86208e-05
1.86275e-05
2.9534e-06
8.76897e-06
2.95409e-06
8.77001e-06
1.37391e-07
1.37396e-07
1.37393e-07
1.37382e-07
1.37385e-07
1.3739e-07
1.37387e-07
7.67097e-07
2.32384e-06
1.53566e-07
1.96879e-07
7.67668e-07
2.32245e-06
1.53569e-07
1.86209e-05
1.86279e-05
7.67025e-07
1.53564e-07
2.32409e-06
1.96905e-07
7.67596e-07
1.53567e-07
2.32273e-06
4.75184e-06
4.75371e-06
2.70544e-07
4.75088e-06
4.75276e-06
2.9531e-06
8.76718e-06
2.95377e-06
8.76896e-06
1.86198e-05
1.86291e-05
2.95343e-06
8.76935e-06
2.95405e-06
8.77108e-06
1.3739e-07
1.37395e-07
1.37392e-07
1.37384e-07
1.37383e-07
1.37388e-07
1.37385e-07
7.67028e-07
2.32372e-06
1.53565e-07
1.96864e-07
7.67642e-07
2.32205e-06
1.53567e-07
1.86203e-05
1.86298e-05
7.66953e-07
1.53564e-07
2.32395e-06
1.96891e-07
7.67568e-07
1.53566e-07
2.3223e-06
4.75263e-06
4.75449e-06
2.70539e-07
4.75122e-06
4.75309e-06
2.95331e-06
8.76776e-06
2.95385e-06
8.77027e-06
1.8618e-05
1.86309e-05
2.95365e-06
8.76981e-06
2.95413e-06
8.77233e-06
1.37388e-07
1.37393e-07
1.3739e-07
1.37385e-07
1.3738e-07
1.37385e-07
1.37382e-07
7.66953e-07
2.32361e-06
1.53564e-07
1.96842e-07
7.67641e-07
2.32166e-06
1.53563e-07
1.86188e-05
1.8632e-05
7.6688e-07
1.53562e-07
2.32385e-06
1.96868e-07
7.67567e-07
1.53562e-07
2.32198e-06
4.75359e-06
4.75545e-06
2.70531e-07
4.75141e-06
4.75328e-06
2.95392e-06
8.76697e-06
2.9541e-06
8.7706e-06
1.86144e-05
1.86326e-05
2.95424e-06
8.76897e-06
2.95437e-06
8.7726e-06
1.37387e-07
1.37392e-07
1.37389e-07
1.37381e-07
1.37377e-07
1.37383e-07
1.3738e-07
7.6687e-07
2.32463e-06
1.53559e-07
1.96804e-07
7.67696e-07
2.32212e-06
1.53557e-07
1.86156e-05
1.8634e-05
7.668e-07
1.53557e-07
2.32494e-06
1.96829e-07
7.67625e-07
1.53555e-07
2.32246e-06
4.75475e-06
4.7566e-06
2.70517e-07
4.75154e-06
4.75338e-06
2.95511e-06
8.76381e-06
2.95467e-06
8.76977e-06
1.86084e-05
1.86334e-05
2.9554e-06
8.76569e-06
2.95493e-06
8.77162e-06
1.37386e-07
1.37391e-07
1.37388e-07
1.37358e-07
1.37354e-07
1.37358e-07
1.37355e-07
7.66678e-07
2.32715e-06
1.53548e-07
1.96731e-07
7.6784e-07
2.32315e-06
1.53541e-07
1.861e-05
1.8635e-05
7.66625e-07
1.53547e-07
2.32743e-06
1.96754e-07
7.67779e-07
1.53539e-07
2.32343e-06
4.75643e-06
4.75825e-06
2.70488e-07
4.75187e-06
4.75369e-06
2.95242e-06
8.75634e-06
2.95395e-06
8.76298e-06
1.85981e-05
1.86238e-05
2.95276e-06
8.75821e-06
2.95424e-06
8.76473e-06
1.37378e-07
1.37382e-07
1.3738e-07
1.36907e-07
1.36905e-07
1.36906e-07
1.36903e-07
7.63885e-07
2.33126e-06
1.53432e-07
1.96025e-07
7.67636e-07
2.31921e-06
1.53566e-07
1.86e-05
1.86255e-05
7.63826e-07
1.53433e-07
2.33146e-06
1.96043e-07
7.67581e-07
1.53566e-07
2.31933e-06
4.75853e-06
4.76036e-06
2.69529e-07
4.7481e-06
4.74982e-06
2.16681e-06
7.85562e-06
2.88693e-06
4.71068e-06
1.63836e-05
7.87472e-06
2.16713e-06
7.85697e-06
2.88731e-06
4.71154e-06
1.21489e-07
1.26056e-07
1.26054e-07
1.39005e-07
1.2163e-07
1.26849e-07
1.26847e-07
6.98123e-07
2.20221e-06
1.50659e-07
1.8203e-07
7.43443e-07
2.23771e-06
1.4672e-07
1.63845e-05
7.87453e-06
6.9808e-07
1.50659e-07
2.20224e-06
1.82033e-07
7.43394e-07
1.46718e-07
2.23767e-06
4.63321e-06
4.63504e-06
2.43457e-07
4.08774e-06
4.0887e-06
1.86236e-05
1.86252e-05
4.75092e-06
4.75256e-06
8.76601e-06
2.95126e-06
8.76769e-06
8.76772e-06
2.95177e-06
2.32269e-06
1.53642e-07
7.66983e-07
1.96974e-07
2.32339e-06
1.53654e-07
2.32478e-06
7.67126e-07
1.86246e-05
1.86235e-05
2.71099e-07
4.75255e-06
4.75022e-06
4.75313e-06
4.75087e-06
1.86217e-05
1.86206e-05
8.7681e-06
2.95169e-06
2.32299e-06
1.53646e-07
7.67193e-07
8.7674e-06
2.95186e-06
1.5365e-07
2.32288e-06
7.6721e-07
7.67869e-07
1.9689e-07
2.32247e-06
1.53638e-07
2.32368e-06
1.53637e-07
7.67161e-07
2.9523e-06
8.76731e-06
8.76733e-06
2.95195e-06
7.67878e-07
1.96945e-07
1.53644e-07
2.32295e-06
1.53642e-07
2.32424e-06
7.67171e-07
2.95226e-06
8.76713e-06
8.76714e-06
2.9519e-06
1.86251e-05
4.7521e-06
4.75093e-06
1.86245e-05
1.53643e-07
2.32276e-06
7.67204e-07
1.96921e-07
1.53641e-07
2.32334e-06
2.32462e-06
7.67184e-07
8.76742e-06
2.95177e-06
8.76795e-06
8.76799e-06
2.95188e-06
2.7113e-07
4.75026e-06
4.7522e-06
4.75079e-06
4.75267e-06
1.86231e-05
1.8622e-05
1.86243e-05
1.86232e-05
1.86214e-05
1.86225e-05
1.86231e-05
1.86242e-05
4.7511e-06
4.75273e-06
2.70402e-07
4.75075e-06
4.75237e-06
1.86217e-05
1.86205e-05
1.86236e-05
1.86222e-05
2.71059e-07
4.75061e-06
4.75234e-06
4.75087e-06
4.75252e-06
2.95199e-06
8.76751e-06
2.95218e-06
8.76745e-06
7.66844e-07
2.32345e-06
1.53642e-07
1.96949e-07
7.67297e-07
2.3226e-06
1.53644e-07
7.66991e-07
2.32407e-06
1.53655e-07
1.96988e-07
7.67442e-07
2.32307e-06
1.53656e-07
2.95161e-06
8.76562e-06
8.76563e-06
2.95151e-06
2.95225e-06
8.76723e-06
8.76726e-06
2.95207e-06
7.67139e-07
1.96954e-07
2.32258e-06
1.53645e-07
2.32337e-06
1.53644e-07
7.66741e-07
7.67287e-07
1.96994e-07
2.32296e-06
1.53657e-07
2.32383e-06
1.53656e-07
7.66885e-07
4.75269e-06
4.75047e-06
2.70381e-07
4.75245e-06
4.75013e-06
1.86196e-05
1.8621e-05
1.86231e-05
1.86217e-05
2.71038e-07
4.75241e-06
4.75013e-06
4.75262e-06
4.75039e-06
1.86204e-05
1.86188e-05
7.6705e-07
2.32384e-06
1.53646e-07
1.96932e-07
7.67497e-07
2.32302e-06
1.53647e-07
2.95202e-06
8.76721e-06
2.9522e-06
8.76718e-06
7.67067e-07
1.53651e-07
2.32378e-06
1.96966e-07
7.67518e-07
1.53652e-07
2.32296e-06
2.95194e-06
8.76765e-06
8.76768e-06
2.95185e-06
7.67339e-07
1.96938e-07
2.32309e-06
1.53648e-07
2.32386e-06
1.53647e-07
7.66938e-07
2.95223e-06
8.767e-06
8.767e-06
2.9521e-06
7.67356e-07
1.96972e-07
1.53654e-07
2.32302e-06
1.53652e-07
2.32381e-06
7.66957e-07
2.95208e-06
8.76713e-06
2.9522e-06
8.76709e-06
7.66986e-07
1.53648e-07
2.32364e-06
1.96962e-07
7.67445e-07
1.53648e-07
2.32263e-06
2.95206e-06
8.76695e-06
2.95218e-06
8.76691e-06
7.67287e-07
1.96911e-07
2.32232e-06
1.53648e-07
2.32315e-06
1.53646e-07
7.66916e-07
2.95238e-06
8.76689e-06
8.76692e-06
2.95227e-06
7.67275e-07
1.96968e-07
1.53651e-07
2.32254e-06
1.53649e-07
2.32338e-06
7.66901e-07
2.95235e-06
8.76673e-06
8.76674e-06
2.95224e-06
4.7524e-06
4.75111e-06
2.7038e-07
4.75196e-06
4.75071e-06
1.86224e-05
1.86234e-05
1.86234e-05
1.86219e-05
2.71036e-07
4.75186e-06
4.75053e-06
4.75221e-06
4.75083e-06
1.86225e-05
1.86213e-05
7.67043e-07
1.53641e-07
2.32404e-06
1.96936e-07
7.67489e-07
1.53643e-07
2.32303e-06
2.95199e-06
8.76723e-06
2.95219e-06
8.76715e-06
2.95208e-06
8.76776e-06
2.95224e-06
8.7677e-06
7.67347e-07
1.96932e-07
1.5365e-07
2.32261e-06
1.53649e-07
2.32341e-06
7.66953e-07
7.67328e-07
1.96942e-07
1.53645e-07
2.32291e-06
1.53644e-07
2.32379e-06
7.66935e-07
2.95226e-06
8.76694e-06
8.76697e-06
2.95206e-06
2.95229e-06
8.7675e-06
8.76752e-06
2.95215e-06
1.86211e-05
1.86224e-05
1.86223e-05
1.86236e-05
2.71078e-07
4.75027e-06
4.75215e-06
4.75044e-06
4.75235e-06
1.86218e-05
1.86204e-05
1.8623e-05
1.86216e-05
1.86197e-05
1.86211e-05
1.86216e-05
1.8623e-05
4.75078e-06
4.75252e-06
2.70446e-07
4.75058e-06
4.75236e-06
1.86207e-05
1.86191e-05
1.86227e-05
1.86211e-05
2.71105e-07
4.75061e-06
4.75248e-06
4.75076e-06
4.75256e-06
2.95219e-06
8.76705e-06
2.95232e-06
8.76702e-06
7.66691e-07
2.32337e-06
1.53652e-07
1.96972e-07
7.67052e-07
2.32261e-06
1.53653e-07
7.66837e-07
2.32374e-06
1.53664e-07
1.9701e-07
7.67195e-07
2.32293e-06
1.53664e-07
2.95194e-06
8.76533e-06
8.76529e-06
2.95185e-06
2.95246e-06
8.76686e-06
8.76684e-06
2.95235e-06
7.67012e-07
1.96977e-07
2.32267e-06
1.53653e-07
2.32341e-06
1.53652e-07
7.66683e-07
7.67162e-07
1.97014e-07
2.32296e-06
1.53665e-07
2.32372e-06
1.53663e-07
7.6684e-07
4.75259e-06
4.75043e-06
2.70413e-07
4.75243e-06
4.75025e-06
1.86183e-05
1.86201e-05
1.86224e-05
1.86208e-05
2.71072e-07
4.75256e-06
4.75047e-06
4.75265e-06
4.75058e-06
1.86199e-05
1.86181e-05
7.66902e-07
2.32394e-06
1.53654e-07
1.96958e-07
7.6724e-07
2.32318e-06
1.53656e-07
2.9522e-06
8.76683e-06
2.9523e-06
8.76683e-06
7.66911e-07
1.5366e-07
2.32388e-06
1.96994e-07
7.67261e-07
1.53661e-07
2.32312e-06
2.95222e-06
8.76736e-06
8.76733e-06
2.95217e-06
7.67221e-07
1.96963e-07
2.32328e-06
1.53659e-07
2.32403e-06
1.53656e-07
7.66929e-07
2.95244e-06
8.76669e-06
8.76666e-06
2.9524e-06
7.67234e-07
1.97e-07
1.53664e-07
2.32322e-06
1.53662e-07
2.32398e-06
7.66937e-07
2.95244e-06
8.76672e-06
2.95255e-06
8.7667e-06
7.66913e-07
1.53657e-07
2.32332e-06
1.96986e-07
7.67215e-07
1.53658e-07
2.32254e-06
2.95241e-06
8.76656e-06
2.95252e-06
8.76653e-06
7.67246e-07
1.96933e-07
2.32241e-06
1.53659e-07
2.32318e-06
1.53657e-07
7.66962e-07
2.95274e-06
8.76658e-06
8.76654e-06
2.95264e-06
7.67246e-07
1.96991e-07
1.53661e-07
2.32259e-06
1.53659e-07
2.32334e-06
7.66971e-07
2.95271e-06
8.76639e-06
8.76637e-06
2.95261e-06
4.75216e-06
4.75068e-06
2.70424e-07
4.75196e-06
4.7505e-06
1.86205e-05
1.8622e-05
1.86226e-05
1.86208e-05
2.71082e-07
4.75214e-06
4.75068e-06
4.75229e-06
4.75073e-06
1.86217e-05
1.862e-05
7.66903e-07
1.53652e-07
2.3237e-06
1.9696e-07
7.67237e-07
1.53653e-07
2.3229e-06
2.95216e-06
8.76677e-06
2.95232e-06
8.76675e-06
2.95226e-06
8.76733e-06
2.95236e-06
8.76734e-06
7.67268e-07
1.96955e-07
1.53661e-07
2.32271e-06
1.53659e-07
2.32344e-06
7.66963e-07
7.67224e-07
1.96965e-07
1.53657e-07
2.32296e-06
1.53655e-07
2.3237e-06
7.66937e-07
2.95244e-06
8.76662e-06
8.76659e-06
2.9523e-06
2.95248e-06
8.76727e-06
8.76718e-06
2.95241e-06
1.86199e-05
1.86215e-05
1.86211e-05
1.86226e-05
2.71115e-07
4.7505e-06
4.75244e-06
4.75057e-06
4.75243e-06
1.86212e-05
1.86196e-05
1.86224e-05
1.86208e-05
1.86188e-05
1.86204e-05
1.86209e-05
1.86226e-05
4.75081e-06
4.75271e-06
2.70488e-07
4.7507e-06
4.75267e-06
1.86205e-05
1.86186e-05
1.86227e-05
1.86208e-05
2.71147e-07
4.75095e-06
4.75295e-06
4.75094e-06
4.75292e-06
2.95252e-06
8.76671e-06
2.95262e-06
8.76678e-06
7.66707e-07
2.32347e-06
1.5366e-07
1.96994e-07
7.67014e-07
2.32274e-06
1.5366e-07
7.66866e-07
2.32376e-06
1.53671e-07
1.97028e-07