/*--------------------------------*- C++ -*----------------------------------*\
| =========                 |                                                 |
| \\      /  F ield         | OpenFOAM: The Open Source CFD Toolbox           |
|  \\    /   O peration     | Version:  v1912                                 |
|   \\  /    A nd           | Website:  www.openfoam.com                      |
|    \\/     M anipulation  |                                                 |
\*---------------------------------------------------------------------------*/
FoamFile
{
    version     2.0;
    format      ascii;
    class       volScalarField;
    location    "80";
    object      k;
}
// * * * * * * * * * * * * * * * * * * * * * * * * * * * * * * * * * * * * * //

dimensions      [0 2 -2 0 0 0 0];


internalField   nonuniform List<scalar> 
57062
(
1.59066e-05
1.603e-05
1.60307e-05
1.66428e-05
1.5907e-05
1.60307e-05
1.60314e-05
1.66442e-05
1.59074e-05
1.60314e-05
1.60321e-05
1.66456e-05
1.59076e-05
1.60322e-05
1.60328e-05
1.66469e-05
1.59079e-05
1.6033e-05
1.60336e-05
1.66486e-05
1.5908e-05
1.60339e-05
1.60343e-05
1.66499e-05
1.59085e-05
1.60348e-05
1.6035e-05
1.66514e-05
1.59091e-05
1.60355e-05
1.60357e-05
1.66527e-05
1.59086e-05
1.60362e-05
1.60364e-05
1.66539e-05
1.59076e-05
1.60368e-05
1.60369e-05
1.66552e-05
1.59066e-05
1.6037e-05
1.60357e-05
1.66559e-05
1.59059e-05
1.60357e-05
1.60353e-05
1.66562e-05
1.59053e-05
1.60349e-05
1.60349e-05
1.66561e-05
1.59046e-05
1.60342e-05
1.60338e-05
1.66549e-05
1.59026e-05
1.60324e-05
1.60322e-05
1.66531e-05
1.59012e-05
1.60303e-05
1.60307e-05
1.66491e-05
1.58954e-05
1.60238e-05
1.60246e-05
1.66433e-05
1.58951e-05
1.60237e-05
1.60239e-05
1.664e-05
1.58958e-05
1.60242e-05
1.60244e-05
1.66411e-05
1.58966e-05
1.60246e-05
1.60248e-05
1.66417e-05
1.5897e-05
1.60247e-05
1.6025e-05
1.66425e-05
1.5897e-05
1.60248e-05
1.60251e-05
1.6643e-05
1.5897e-05
1.6025e-05
1.60253e-05
1.66431e-05
1.58971e-05
1.60252e-05
1.60254e-05
1.6643e-05
1.58972e-05
1.60253e-05
1.60255e-05
1.66429e-05
1.58975e-05
1.60255e-05
1.60257e-05
1.66429e-05
1.58979e-05
1.60257e-05
1.60259e-05
1.66428e-05
1.58981e-05
1.60258e-05
1.6026e-05
1.66426e-05
1.58984e-05
1.60262e-05
1.60264e-05
1.66407e-05
1.59076e-05
1.59064e-05
1.59064e-05
1.6538e-05
1.66362e-05
1.60304e-05
1.60305e-05
1.66354e-05
1.60307e-05
1.60299e-05
1.60298e-05
1.60305e-05
1.66353e-05
1.60304e-05
1.60308e-05
1.66354e-05
1.66429e-05
1.66372e-05
1.60305e-05
1.60308e-05
1.60309e-05
1.60312e-05
1.66423e-05
1.66366e-05
1.60309e-05
1.60301e-05
1.60313e-05
1.60306e-05
1.60309e-05
1.60306e-05
1.60313e-05
1.66421e-05
1.66364e-05
1.60312e-05
1.60313e-05
1.60316e-05
1.66368e-05
1.66442e-05
1.66387e-05
1.60313e-05
1.60315e-05
1.60318e-05
1.60319e-05
1.66436e-05
1.66379e-05
1.60317e-05
1.6031e-05
1.60322e-05
1.60315e-05
1.60316e-05
1.60313e-05
1.6032e-05
1.66433e-05
1.66379e-05
1.6032e-05
1.6032e-05
1.60324e-05
1.66384e-05
1.66456e-05
1.66401e-05
1.60321e-05
1.60323e-05
1.60327e-05
1.60327e-05
1.66448e-05
1.66396e-05
1.60325e-05
1.60318e-05
1.60331e-05
1.60323e-05
1.60324e-05
1.6032e-05
1.60328e-05
1.66447e-05
1.66391e-05
1.60327e-05
1.60327e-05
1.60332e-05
1.66398e-05
1.66471e-05
1.66419e-05
1.6033e-05
1.60331e-05
1.60335e-05
1.60335e-05
1.66465e-05
1.66408e-05
1.60334e-05
1.60327e-05
1.6034e-05
1.60332e-05
1.60332e-05
1.60328e-05
1.60337e-05
1.6646e-05
1.6641e-05
1.60335e-05
1.60334e-05
1.6034e-05
1.66414e-05
1.66487e-05
1.66423e-05
1.60339e-05
1.60339e-05
1.60343e-05
1.60343e-05
1.66479e-05
1.66421e-05
1.60344e-05
1.60335e-05
1.60348e-05
1.6034e-05
1.6034e-05
1.60337e-05
1.60345e-05
1.66479e-05
1.66417e-05
1.60344e-05
1.60341e-05
1.60349e-05
1.66428e-05
1.66491e-05
1.66438e-05
1.60347e-05
1.60347e-05
1.60351e-05
1.60351e-05
1.66488e-05
1.66439e-05
1.60352e-05
1.60344e-05
1.60355e-05
1.60348e-05
1.60349e-05
1.60346e-05
1.60353e-05
1.66485e-05
1.66436e-05
1.60352e-05
1.60348e-05
1.60358e-05
1.66442e-05
1.66507e-05
1.66445e-05
1.60355e-05
1.60355e-05
1.60358e-05
1.6036e-05
1.66506e-05
1.6645e-05
1.60359e-05
1.60352e-05
1.60361e-05
1.60356e-05
1.60357e-05
1.60353e-05
1.60362e-05
1.66505e-05
1.66444e-05
1.60361e-05
1.60355e-05
1.60366e-05
1.66454e-05
1.66514e-05
1.66457e-05
1.60362e-05
1.60363e-05
1.60364e-05
1.60369e-05
1.66521e-05
1.66462e-05
1.60365e-05
1.6036e-05
1.60366e-05
1.60363e-05
1.60366e-05
1.60361e-05
1.60369e-05
1.66514e-05
1.66457e-05
1.6037e-05
1.60363e-05
1.60373e-05
1.66465e-05
1.66527e-05
1.6647e-05
1.60368e-05
1.60372e-05
1.60368e-05
1.60376e-05
1.66534e-05
1.66475e-05
1.6037e-05
1.60367e-05
1.60369e-05
1.60366e-05
1.60374e-05
1.60367e-05
1.60377e-05
1.66528e-05
1.66466e-05
1.60377e-05
1.60368e-05
1.60379e-05
1.66477e-05
1.66541e-05
1.66477e-05
1.60368e-05
1.6038e-05
1.60362e-05
1.60381e-05
1.66547e-05
1.66487e-05
1.6037e-05
1.60367e-05
1.60365e-05
1.6036e-05
1.60381e-05
1.60371e-05
1.6038e-05
1.66537e-05
1.66471e-05
1.60383e-05
1.60362e-05
1.60381e-05
1.66485e-05
1.66548e-05
1.6648e-05
1.60363e-05
1.6038e-05
1.60356e-05
1.60368e-05
1.66557e-05
1.66487e-05
1.60366e-05
1.6036e-05
1.60359e-05
1.60352e-05
1.60378e-05
1.60361e-05
1.60369e-05
1.66541e-05
1.66468e-05
1.60381e-05
1.60354e-05
1.60375e-05
1.66488e-05
1.66549e-05
1.66476e-05
1.60357e-05
1.60366e-05
1.60354e-05
1.60356e-05
1.66557e-05
1.6648e-05
1.6036e-05
1.60353e-05
1.60355e-05
1.60352e-05
1.60368e-05
1.60351e-05
1.60361e-05
1.66538e-05
1.66466e-05
1.60374e-05
1.6035e-05
1.60366e-05
1.66488e-05
1.66546e-05
1.66472e-05
1.60357e-05
1.60355e-05
1.60355e-05
1.60349e-05
1.6655e-05
1.66469e-05
1.60357e-05
1.60356e-05
1.60357e-05
1.60354e-05
1.60359e-05
1.60344e-05
1.60352e-05
1.66536e-05
1.66465e-05
1.60364e-05
1.60341e-05
1.60354e-05
1.66476e-05
1.66542e-05
1.66461e-05
1.6035e-05
1.60347e-05
1.60329e-05
1.60331e-05
1.66537e-05
1.66455e-05
1.60359e-05
1.60352e-05
1.60341e-05
1.60332e-05
1.6035e-05
1.6033e-05
1.60334e-05
1.66533e-05
1.66454e-05
1.60352e-05
1.60328e-05
1.60338e-05
1.66461e-05
1.66527e-05
1.66434e-05
1.60323e-05
1.60326e-05
1.60307e-05
1.6031e-05
1.66521e-05
1.66426e-05
1.60335e-05
1.60325e-05
1.60316e-05
1.60305e-05
1.60329e-05
1.6031e-05
1.60313e-05
1.6652e-05
1.66427e-05
1.60333e-05
1.6031e-05
1.60317e-05
1.66425e-05
1.66499e-05
1.66393e-05
1.60304e-05
1.60305e-05
1.60258e-05
1.6025e-05
1.6649e-05
1.66374e-05
1.60313e-05
1.60302e-05
1.60266e-05
1.60257e-05
1.60307e-05
1.60247e-05
1.60247e-05
1.66492e-05
1.66385e-05
1.60312e-05
1.60263e-05
1.60255e-05
1.66375e-05
1.66451e-05
1.66344e-05
1.60244e-05
1.60238e-05
1.60232e-05
1.60229e-05
1.66432e-05
1.66335e-05
1.60251e-05
1.60241e-05
1.60237e-05
1.60224e-05
1.60235e-05
1.60237e-05
1.60226e-05
1.66444e-05
1.66335e-05
1.60241e-05
1.60239e-05
1.6023e-05
1.66333e-05
1.6641e-05
1.66347e-05
1.60236e-05
1.60234e-05
1.60236e-05
1.60234e-05
1.66402e-05
1.66342e-05
1.60241e-05
1.60227e-05
1.60242e-05
1.60228e-05
1.60231e-05
1.60241e-05
1.60231e-05
1.66401e-05
1.66339e-05
1.60234e-05
1.60243e-05
1.60235e-05
1.66343e-05
1.66414e-05
1.66354e-05
1.60241e-05
1.60239e-05
1.60241e-05
1.60239e-05
1.6641e-05
1.66348e-05
1.60246e-05
1.60232e-05
1.60247e-05
1.60233e-05
1.60235e-05
1.60245e-05
1.60236e-05
1.66406e-05
1.66346e-05
1.60239e-05
1.60248e-05
1.6024e-05
1.66347e-05
1.66421e-05
1.66358e-05
1.60245e-05
1.60243e-05
1.60246e-05
1.60245e-05
1.66415e-05
1.66353e-05
1.60251e-05
1.60237e-05
1.60251e-05
1.60238e-05
1.6024e-05
1.60247e-05
1.60242e-05
1.66413e-05
1.66349e-05
1.60244e-05
1.6025e-05
1.60245e-05
1.66352e-05
1.66426e-05
1.6636e-05
1.6025e-05
1.60248e-05
1.60247e-05
1.60249e-05
1.66421e-05
1.66352e-05
1.60255e-05
1.60242e-05
1.60252e-05
1.60243e-05
1.60245e-05
1.60248e-05
1.60247e-05
1.66418e-05
1.66351e-05
1.60249e-05
1.6025e-05
1.6025e-05
1.66356e-05
1.66427e-05
1.6636e-05
1.6025e-05
1.60253e-05
1.60247e-05
1.6025e-05
1.66422e-05
1.66352e-05
1.60254e-05
1.60247e-05
1.60252e-05
1.60244e-05
1.60251e-05
1.6025e-05
1.60251e-05
1.66418e-05
1.66351e-05
1.60254e-05
1.60253e-05
1.60253e-05
1.66357e-05
1.66429e-05
1.66359e-05
1.60249e-05
1.60253e-05
1.60246e-05
1.6025e-05
1.66421e-05
1.66354e-05
1.60255e-05
1.60247e-05
1.60251e-05
1.60244e-05
1.60254e-05
1.60251e-05
1.60249e-05
1.6642e-05
1.66352e-05
1.60256e-05
1.60254e-05
1.60253e-05
1.66357e-05
1.66428e-05
1.6636e-05
1.60249e-05
1.60253e-05
1.60245e-05
1.60249e-05
1.66422e-05
1.66355e-05
1.60254e-05
1.60247e-05
1.6025e-05
1.60244e-05
1.60252e-05
1.60252e-05
1.60249e-05
1.66421e-05
1.66354e-05
1.60256e-05
1.60254e-05
1.60252e-05
1.66356e-05
1.66428e-05
1.66361e-05
1.6025e-05
1.60253e-05
1.60246e-05
1.60249e-05
1.66423e-05
1.66357e-05
1.60255e-05
1.60248e-05
1.60252e-05
1.60245e-05
1.60253e-05
1.60252e-05
1.60249e-05
1.66422e-05
1.66355e-05
1.60256e-05
1.60255e-05
1.60252e-05
1.66357e-05
1.66429e-05
1.66362e-05
1.60252e-05
1.60254e-05
1.60247e-05
1.60249e-05
1.66424e-05
1.66358e-05
1.60257e-05
1.6025e-05
1.60252e-05
1.60245e-05
1.60255e-05
1.60254e-05
1.6025e-05
1.66423e-05
1.66356e-05
1.60257e-05
1.60256e-05
1.60253e-05
1.66357e-05
1.66429e-05
1.66362e-05
1.60254e-05
1.60256e-05
1.60248e-05
1.60249e-05
1.66425e-05
1.66358e-05
1.60259e-05
1.60252e-05
1.60253e-05
1.60246e-05
1.60256e-05
1.60254e-05
1.6025e-05
1.66423e-05
1.66357e-05
1.60259e-05
1.60256e-05
1.60253e-05
1.66358e-05
1.66427e-05
1.66355e-05
1.60255e-05
1.60257e-05
1.60236e-05
1.60237e-05
1.66423e-05
1.66352e-05
1.6026e-05
1.60253e-05
1.60241e-05
1.60234e-05
1.60257e-05
1.60244e-05
1.60239e-05
1.66421e-05
1.6635e-05
1.6026e-05
1.60245e-05
1.60241e-05
1.66351e-05
1.66404e-05
1.65934e-05
1.60256e-05
1.60257e-05
1.597e-05
1.59701e-05
1.66401e-05
1.65932e-05
1.60261e-05
1.60254e-05
1.59705e-05
1.59697e-05
1.60259e-05
1.59708e-05
1.59701e-05
1.66399e-05
1.65931e-05
1.60261e-05
1.59708e-05
1.59704e-05
1.65937e-05
1.65375e-05
1.59059e-05
1.59059e-05
1.65374e-05
1.59064e-05
1.59056e-05
1.59077e-05
1.59076e-05
1.59075e-05
1.59061e-05
1.65372e-05
1.59064e-05
1.59066e-05
1.59073e-05
1.59072e-05
1.59074e-05
4.30638e-05
6.92876e-05
4.30673e-05
6.92872e-05
7.00172e-05
7.00206e-05
4.30724e-05
6.9294e-05
4.30755e-05
6.92935e-05
1.5908e-05
1.59072e-05
1.59081e-05
1.5907e-05
1.59077e-05
1.59069e-05
1.59078e-05
2.23332e-05
3.83135e-05
1.56209e-05
1.60304e-05
2.23384e-05
3.83063e-05
1.56216e-05
7.00143e-05
7.00176e-05
2.23352e-05
1.56211e-05
3.832e-05
1.60311e-05
2.23411e-05
1.56214e-05
3.83131e-05
5.40169e-05
5.40293e-05
1.66374e-05
5.40166e-05
5.40288e-05
4.30704e-05
6.92856e-05
4.30734e-05
6.92854e-05
7.00139e-05
7.00179e-05
4.30779e-05
6.92918e-05
4.30793e-05
6.92916e-05
1.5908e-05
1.59073e-05
1.59081e-05
1.59075e-05
1.59078e-05
1.5907e-05
1.59079e-05
2.23386e-05
3.83159e-05
1.56217e-05
1.60311e-05
2.23419e-05
3.83094e-05
1.56223e-05
7.00103e-05
7.00146e-05
2.23396e-05
1.56215e-05
3.83225e-05
1.60318e-05
2.23429e-05
1.56221e-05
3.83163e-05
5.40192e-05
5.40301e-05
1.66387e-05
5.40186e-05
5.40296e-05
4.3077e-05
6.92842e-05
4.30797e-05
6.92844e-05
7.00122e-05
7.00168e-05
4.30845e-05
6.92904e-05
4.30863e-05
6.92906e-05
1.59082e-05
1.59074e-05
1.59083e-05
1.59076e-05
1.5908e-05
1.59073e-05
1.5908e-05
2.23446e-05
3.83196e-05
1.56224e-05
1.60318e-05
2.2349e-05
3.83132e-05
1.5623e-05
7.00087e-05
7.00137e-05
2.23471e-05
1.56222e-05
3.83265e-05
1.60325e-05
2.23512e-05
1.56228e-05
3.83205e-05
5.40241e-05
5.40369e-05
1.66398e-05
5.40261e-05
5.40374e-05
4.30825e-05
6.9284e-05
4.30855e-05
6.92848e-05
7.00121e-05
7.00172e-05
4.30904e-05
6.92903e-05
4.30924e-05
6.9291e-05
1.59084e-05
1.59079e-05
1.59084e-05
1.59078e-05
1.59082e-05
1.59077e-05
1.59083e-05
2.23467e-05
3.83235e-05
1.56231e-05
1.60326e-05
2.2352e-05
3.83172e-05
1.56237e-05
7.00088e-05
7.00143e-05
2.23482e-05
1.56229e-05
3.83303e-05
1.60332e-05
2.23542e-05
1.56235e-05
3.83241e-05
5.40308e-05
5.40425e-05
1.66412e-05
5.40306e-05
5.4044e-05
4.30877e-05
6.92856e-05
4.30907e-05
6.92866e-05
7.00129e-05
7.00181e-05
4.30951e-05
6.92914e-05
4.30973e-05
6.92924e-05
1.59087e-05
1.59081e-05
1.59088e-05
1.5908e-05
1.59086e-05
1.5908e-05
1.59086e-05
2.23488e-05
3.83279e-05
1.56237e-05
1.60335e-05
2.23539e-05
3.83218e-05
1.56242e-05
7.00096e-05
7.00152e-05
2.23488e-05
1.56236e-05
3.83335e-05
1.60339e-05
2.23545e-05
1.56242e-05
3.8327e-05
5.40328e-05
5.40454e-05
1.66428e-05
5.40324e-05
5.40465e-05
4.30917e-05
6.92871e-05
4.30952e-05
6.9288e-05
7.00139e-05
7.00192e-05
4.30997e-05
6.9293e-05
4.31021e-05
6.92938e-05
1.59091e-05
1.59086e-05
1.59092e-05
1.59085e-05
1.5909e-05
1.59084e-05
1.5909e-05
2.23512e-05
3.83323e-05
1.5624e-05
1.60343e-05
2.23563e-05
3.83258e-05
1.56247e-05
7.00107e-05
7.00162e-05
2.23504e-05
1.5624e-05
3.83361e-05
1.60346e-05
2.23558e-05
1.56245e-05
3.83293e-05
5.40341e-05
5.4049e-05
1.6644e-05
5.40343e-05
5.4048e-05
4.30952e-05
6.92882e-05
4.30989e-05
6.92889e-05
7.0015e-05
7.00203e-05
4.31035e-05
6.9294e-05
4.31059e-05
6.92947e-05
1.59096e-05
1.5909e-05
1.59095e-05
1.59091e-05
1.59095e-05
1.59089e-05
1.59094e-05
2.23532e-05
3.83349e-05
1.56247e-05
1.60351e-05
2.23585e-05
3.83274e-05
1.56253e-05
7.00116e-05
7.00171e-05
2.23523e-05
1.56245e-05
3.83377e-05
1.60353e-05
2.23576e-05
1.56251e-05
3.83307e-05
5.40368e-05
5.40483e-05
1.66451e-05
5.4036e-05
5.40479e-05
4.3098e-05
6.92889e-05
4.3101e-05
6.92895e-05
7.00162e-05
7.00215e-05
4.31065e-05
6.9295e-05
4.3109e-05
6.92957e-05
1.59102e-05
1.59096e-05
1.591e-05
1.59088e-05
1.591e-05
1.59094e-05
1.59092e-05
2.2355e-05
3.83353e-05
1.56252e-05
1.60359e-05
2.23603e-05
3.83276e-05
1.56259e-05
7.00125e-05
7.00181e-05
2.23542e-05
1.56251e-05
3.83389e-05
1.60361e-05
2.23595e-05
1.56257e-05
3.83315e-05
5.40374e-05
5.40492e-05
1.66466e-05
5.40366e-05
5.40485e-05
4.31004e-05
6.92895e-05
4.31046e-05
6.92902e-05
7.00174e-05
7.00228e-05
4.31085e-05
6.92956e-05
4.31128e-05
6.9296e-05
1.59099e-05
1.59098e-05
1.59095e-05
1.59078e-05
1.59089e-05
1.59092e-05
1.59092e-05
2.23568e-05
3.83355e-05
1.56254e-05
1.60366e-05
2.23621e-05
3.83279e-05
1.56253e-05
7.00137e-05
7.00193e-05
2.23561e-05
1.56252e-05
3.83395e-05
1.60367e-05
2.23615e-05
1.5625e-05
3.83322e-05
5.40379e-05
5.40497e-05
1.66477e-05
5.40371e-05
5.40492e-05
4.31015e-05
6.92902e-05
4.31062e-05
6.92908e-05
7.00188e-05
7.00241e-05
4.311e-05
6.9296e-05
4.31144e-05
6.92967e-05
1.59089e-05
1.59093e-05
1.59092e-05
1.59069e-05
1.5908e-05
1.59081e-05
1.59082e-05
2.23582e-05
3.83359e-05
1.56246e-05
1.60371e-05
2.23637e-05
3.83282e-05
1.56246e-05
7.00149e-05
7.00205e-05
2.23573e-05
1.56239e-05
3.83401e-05
1.60369e-05
2.2363e-05
1.5624e-05
3.83329e-05
5.40383e-05
5.40504e-05
1.6649e-05
5.40374e-05
5.40494e-05
4.31014e-05
6.92907e-05
4.31064e-05
6.92913e-05
7.002e-05
7.00252e-05
4.31104e-05
6.92969e-05
4.31151e-05
6.92975e-05
1.59078e-05
1.59078e-05
1.59081e-05
1.59063e-05
1.59066e-05
1.59059e-05
1.59071e-05
2.23591e-05
3.8336e-05
1.56238e-05
1.6037e-05
2.23648e-05
3.83282e-05
1.56237e-05
7.00159e-05
7.00213e-05
2.2358e-05
1.5623e-05
3.83408e-05
1.60358e-05
2.23639e-05
1.56229e-05
3.83334e-05
5.40378e-05
5.40497e-05
1.66496e-05
5.40368e-05
5.40486e-05
4.3101e-05
6.92912e-05
4.31061e-05
6.92917e-05
7.00207e-05
7.00256e-05
4.311e-05
6.92974e-05
4.31149e-05
6.92978e-05
1.59065e-05
1.59061e-05
1.59071e-05
1.59053e-05
1.59057e-05
1.59056e-05
1.59063e-05
2.23596e-05
3.83358e-05
1.56228e-05
1.60356e-05
2.23655e-05
3.83278e-05
1.56227e-05
7.00164e-05
7.00217e-05
2.23584e-05
1.56221e-05
3.8341e-05
1.60353e-05
2.23644e-05
1.56221e-05
3.83334e-05
5.40376e-05
5.40497e-05
1.66496e-05
5.40367e-05
5.40485e-05
4.30997e-05
6.92913e-05
4.31051e-05
6.92917e-05
7.00208e-05
7.00256e-05
4.31087e-05
6.92974e-05
4.3114e-05
6.92977e-05
1.59057e-05
1.59055e-05
1.59061e-05
1.59049e-05
1.59051e-05
1.59046e-05
1.59052e-05
2.23595e-05
3.83352e-05
1.56221e-05
1.60349e-05
2.23656e-05
3.83272e-05
1.5622e-05
7.00166e-05
7.00217e-05
2.23582e-05
1.56217e-05
3.83405e-05
1.60348e-05
2.23644e-05
1.56217e-05
3.83327e-05
5.4037e-05
5.40488e-05
1.66492e-05
5.4036e-05
5.40478e-05
4.30984e-05
6.92913e-05
4.31035e-05
6.92919e-05
7.00205e-05
7.00252e-05
4.31077e-05
6.92973e-05
4.31124e-05
6.92979e-05
1.59049e-05
1.59043e-05
1.5905e-05
1.59032e-05
1.59032e-05
1.59026e-05
1.59033e-05
2.23587e-05
3.83346e-05
1.56213e-05
1.6034e-05
2.2365e-05
3.83265e-05
1.56211e-05
7.00165e-05
7.00215e-05
2.23573e-05
1.56207e-05
3.83399e-05
1.60336e-05
2.23638e-05
1.56205e-05
3.83322e-05
5.4036e-05
5.40483e-05
1.66483e-05
5.40351e-05
5.40472e-05
4.31006e-05
6.92916e-05
4.31046e-05
6.92921e-05
7.00198e-05
7.00243e-05
4.31099e-05
6.92977e-05
4.3114e-05
6.92981e-05
1.59028e-05
1.59022e-05
1.59028e-05
1.59014e-05
1.59012e-05
1.59006e-05
1.59012e-05
2.23577e-05
3.83343e-05
1.56193e-05
1.60321e-05
2.23642e-05
3.83266e-05
1.5619e-05
7.00156e-05
7.00205e-05
2.23561e-05
1.5619e-05
3.83396e-05
1.6032e-05
2.23626e-05
1.56188e-05
3.83321e-05
5.40366e-05
5.40477e-05
1.6646e-05
5.40362e-05
5.40478e-05
4.31015e-05
6.92913e-05
4.31064e-05
6.92915e-05
7.00186e-05
7.00234e-05
4.31106e-05
6.92974e-05
4.31153e-05
6.92975e-05
1.5901e-05
1.59004e-05
1.59009e-05
1.58972e-05
1.58959e-05
1.5897e-05
1.58958e-05
2.23552e-05
3.83347e-05
1.56175e-05
1.6029e-05
2.23625e-05
3.83267e-05
1.56166e-05
7.00145e-05
7.00196e-05
2.23539e-05
1.56175e-05
3.834e-05
1.60301e-05
2.23611e-05
1.56171e-05
3.83324e-05
5.4038e-05
5.40496e-05
1.66419e-05
5.40368e-05
5.40481e-05
4.31009e-05
6.92904e-05
4.31063e-05
6.92907e-05
7.00178e-05
7.00231e-05
4.31098e-05
6.92965e-05
4.31152e-05
6.92966e-05
1.5895e-05
1.58954e-05
1.58947e-05
1.58951e-05
1.58943e-05
1.58941e-05
1.58938e-05
2.23517e-05
3.83342e-05
1.56113e-05
1.60237e-05
2.23592e-05
3.83259e-05
1.56115e-05
7.00137e-05
7.00192e-05
2.23502e-05
1.56117e-05
3.83399e-05
1.60241e-05
2.23579e-05
1.56116e-05
3.83321e-05
5.40379e-05
5.40487e-05
1.66346e-05
5.40361e-05
5.40472e-05
4.30991e-05
6.92899e-05
4.31049e-05
6.92905e-05
7.00179e-05
7.00235e-05
4.31082e-05
6.92958e-05
4.31138e-05
6.92966e-05
1.58951e-05
1.58948e-05
1.58946e-05
1.58958e-05
1.58952e-05
1.58949e-05
1.58947e-05
2.23495e-05
3.83333e-05
1.56115e-05
1.60241e-05
2.23564e-05
3.8325e-05
1.56121e-05
7.00134e-05
7.00191e-05
2.23476e-05
1.56114e-05
3.83394e-05
1.60243e-05
2.23547e-05
1.5612e-05
3.83316e-05
5.40375e-05
5.40483e-05
1.66335e-05
5.40358e-05
5.40468e-05
4.30974e-05
6.92902e-05
4.3103e-05
6.92912e-05
7.0018e-05
7.00239e-05
4.31061e-05
6.92964e-05
4.31118e-05
6.92975e-05
1.5896e-05
1.58957e-05
1.58954e-05
1.58965e-05
1.5896e-05
1.58957e-05
1.58955e-05
2.23485e-05
3.83327e-05
1.56122e-05
1.60246e-05
2.23551e-05
3.83246e-05
1.56128e-05
7.00131e-05
7.00193e-05
2.23462e-05
1.5612e-05
3.8339e-05
1.60248e-05
2.2353e-05
1.56127e-05
3.8331e-05
5.40381e-05
5.40494e-05
1.66343e-05
5.4037e-05
5.40484e-05
4.30962e-05
6.92906e-05
4.31017e-05
6.92918e-05
7.00175e-05
7.0024e-05
4.31045e-05
6.92973e-05
4.311e-05
6.92987e-05
1.58969e-05
1.58965e-05
1.58963e-05
1.5897e-05
1.58969e-05
1.58966e-05
1.58964e-05
2.23482e-05
3.83327e-05
1.56127e-05
1.60249e-05
2.23547e-05
3.83245e-05
1.56132e-05
7.00128e-05
7.00197e-05
2.23456e-05
1.56126e-05
3.83387e-05
1.60252e-05
2.23523e-05
1.56131e-05
3.83308e-05
5.404e-05
5.40512e-05
1.66351e-05
5.40368e-05
5.40482e-05
4.30951e-05
6.92911e-05
4.31006e-05
6.92926e-05
7.00168e-05
7.00244e-05
4.3103e-05
6.92982e-05
4.31085e-05
6.92998e-05
1.58977e-05
1.58974e-05
1.58972e-05
1.58971e-05
1.58974e-05
1.58972e-05
1.58973e-05
2.23478e-05
3.83329e-05
1.56128e-05
1.60249e-05
2.23545e-05
3.83244e-05
1.56131e-05
7.00123e-05
7.00203e-05
2.23452e-05
1.56128e-05
3.83388e-05
1.60252e-05
2.23519e-05
1.56132e-05
3.83306e-05
5.40389e-05
5.40507e-05
1.66362e-05
5.40353e-05
5.40473e-05
4.30938e-05
6.92912e-05
4.30995e-05
6.92931e-05
7.00158e-05
7.00253e-05
4.31015e-05
6.92988e-05
4.3107e-05
6.9301e-05
1.58978e-05
1.58976e-05
1.58979e-05
1.5897e-05
1.58975e-05
1.58973e-05
1.58975e-05
2.23472e-05
3.83334e-05
1.56129e-05
1.60251e-05
2.23542e-05
3.83244e-05
1.56134e-05
7.00116e-05
7.00214e-05
2.23446e-05
1.56128e-05
3.83391e-05
1.60254e-05
2.23516e-05
1.56131e-05
3.83303e-05
5.40388e-05
5.40506e-05
1.66367e-05
5.40349e-05
5.40467e-05
4.30923e-05
6.9291e-05
4.30982e-05
6.92942e-05
7.00147e-05
7.0027e-05
4.31e-05
6.92992e-05
4.31056e-05
6.9302e-05
1.58979e-05
1.58977e-05
1.58979e-05
1.58971e-05
1.58975e-05
1.58973e-05
1.58975e-05
2.23463e-05
3.83345e-05
1.56131e-05
1.60253e-05
2.23538e-05
3.83247e-05
1.56134e-05
7.00107e-05
7.00235e-05
2.23438e-05
1.5613e-05
3.83399e-05
1.60256e-05
2.23513e-05
1.56135e-05
3.83303e-05
5.40416e-05
5.40531e-05
1.66369e-05
5.40367e-05
5.40481e-05
4.30911e-05
6.9292e-05
4.30967e-05
6.92976e-05
7.00132e-05
7.003e-05
4.30985e-05
6.92992e-05
4.3104e-05
6.93046e-05
1.58979e-05
1.58977e-05
1.58979e-05
1.58972e-05
1.58974e-05
1.58972e-05
1.58974e-05
2.23453e-05
3.83369e-05
1.56133e-05
1.60254e-05
2.23533e-05
3.83253e-05
1.56137e-05
7.00097e-05
7.0027e-05
2.23428e-05
1.56131e-05
3.83419e-05
1.60256e-05
2.23508e-05
1.56135e-05
3.83305e-05
5.40475e-05
5.40587e-05
1.66368e-05
5.40389e-05
5.40503e-05
4.30907e-05
6.92945e-05
4.30958e-05
6.93038e-05
7.00107e-05
7.0034e-05
4.3098e-05
6.93011e-05
4.31028e-05
6.93103e-05
1.58979e-05
1.58977e-05
1.58978e-05
1.58975e-05
1.58974e-05
1.58972e-05
1.58973e-05
2.23442e-05
3.8341e-05
1.56136e-05
1.60253e-05
2.23531e-05
3.8326e-05
1.5614e-05
7.0008e-05
7.00319e-05
2.23416e-05
1.56134e-05
3.83456e-05
1.60256e-05
2.23506e-05
1.56137e-05
3.83305e-05
5.40519e-05
5.4063e-05
1.6637e-05
5.40356e-05
5.40469e-05
4.30923e-05
6.92975e-05
4.30961e-05
6.93108e-05
7.0006e-05
7.00386e-05
4.30997e-05
6.93036e-05
4.31034e-05
6.93168e-05
1.58979e-05
1.58977e-05
1.58978e-05
1.58978e-05
1.58973e-05
1.58971e-05
1.58972e-05
2.23432e-05
3.83476e-05
1.56138e-05
1.60255e-05
2.23537e-05
3.83261e-05
1.56138e-05
7.00043e-05
7.00374e-05
2.23407e-05
1.56136e-05
3.83515e-05
1.60257e-05
2.23512e-05
1.56136e-05
3.833e-05
5.40505e-05
5.40616e-05
1.66371e-05
5.40228e-05
5.4034e-05
4.31009e-05
6.92933e-05
4.30995e-05
6.93125e-05
6.99971e-05
7.00427e-05
4.31077e-05
6.92994e-05
4.31065e-05
6.93185e-05
1.58979e-05
1.58977e-05
1.58978e-05
1.5898e-05
1.58973e-05
1.58971e-05
1.58972e-05
2.23424e-05
3.83587e-05
1.5614e-05
1.60256e-05
2.23559e-05
3.83231e-05
1.5614e-05
6.99964e-05
7.00424e-05
2.234e-05
1.56138e-05
3.83618e-05
1.60258e-05
2.23534e-05
1.56137e-05
3.83259e-05
5.40419e-05
5.4053e-05
1.66372e-05
5.39975e-05
5.40088e-05
4.30981e-05
6.92767e-05
4.30971e-05
6.93081e-05
6.99821e-05
7.00447e-05
4.31048e-05
6.92823e-05
4.31036e-05
6.93136e-05
1.5898e-05
1.58978e-05
1.58978e-05
1.5898e-05
1.58978e-05
1.58976e-05
1.58976e-05
2.23391e-05
3.83735e-05
1.56142e-05
1.60255e-05
2.23599e-05
3.83106e-05
1.56142e-05
6.99823e-05
7.0045e-05
2.2337e-05
1.5614e-05
3.83752e-05
1.60256e-05
2.23577e-05
1.5614e-05
3.8312e-05
5.40239e-05
5.40352e-05
1.66371e-05
5.39559e-05
5.39673e-05
4.30584e-05
6.92409e-05
4.30764e-05
6.92945e-05
6.99597e-05
7.00409e-05
4.30649e-05
6.92461e-05
4.3083e-05
6.92997e-05
1.5899e-05
1.58988e-05
1.58988e-05
1.59012e-05
1.59013e-05
1.59012e-05
1.59011e-05
2.22996e-05
3.83914e-05
1.56147e-05
1.60187e-05
2.23603e-05
3.82391e-05
1.56137e-05
6.99603e-05
7.00415e-05
2.22975e-05
1.56146e-05
3.8392e-05
1.60188e-05
2.23583e-05
1.56135e-05
3.82391e-05
5.39903e-05
5.40018e-05
1.66302e-05
5.38661e-05
5.38776e-05
3.62122e-05
6.79248e-05
4.25146e-05
6.94606e-05
6.96177e-05
5.81776e-05
3.6217e-05
6.79285e-05
4.252e-05
6.94653e-05
1.65204e-05
1.61716e-05
1.61721e-05
1.58905e-05
1.65065e-05
1.61397e-05
1.61401e-05
2.14675e-05
3.71732e-05
1.56155e-05
1.58234e-05
2.20199e-05
4.00887e-05
1.56203e-05
6.96179e-05
5.81779e-05
2.14658e-05
1.56154e-05
3.71729e-05
1.58234e-05
2.2018e-05
1.56202e-05
4.00877e-05
5.34493e-05
5.346e-05
1.6393e-05
5.04504e-05
5.04581e-05
7.0022e-05
7.00228e-05
5.40223e-05
5.40314e-05
6.92883e-05
4.30637e-05
6.9296e-05
6.92961e-05
4.3074e-05
3.83118e-05
1.56215e-05
2.23313e-05
1.60303e-05
3.83136e-05
1.56217e-05
3.83232e-05
2.23345e-05
7.00226e-05
7.002e-05
1.66418e-05
5.40343e-05
5.40147e-05
5.40338e-05
5.40136e-05
7.00177e-05
7.00147e-05
6.92948e-05
4.30724e-05
3.83153e-05
1.56215e-05
2.23351e-05
6.9289e-05
4.30749e-05
1.56213e-05
3.8312e-05
2.23357e-05
2.23404e-05
1.60295e-05
3.83055e-05
1.56209e-05
3.83137e-05
1.56209e-05
2.23325e-05
4.30752e-05
6.92934e-05
6.92935e-05
4.30768e-05
2.23406e-05
1.60303e-05
1.56214e-05
3.83075e-05
1.56213e-05
3.83165e-05
2.23327e-05
4.30744e-05
6.92902e-05
6.92903e-05
4.3076e-05
7.00202e-05
5.4021e-05
5.40223e-05
7.00222e-05
1.5621e-05
3.83124e-05
2.2335e-05
1.60306e-05
1.56216e-05
3.83101e-05
3.83196e-05
2.23348e-05
6.92914e-05
4.30726e-05
6.92935e-05
6.92937e-05
4.30764e-05
1.66428e-05
5.40158e-05
5.40284e-05
5.40141e-05
5.40261e-05
7.00184e-05
7.00157e-05
7.00198e-05
7.0017e-05
7.00167e-05
7.00194e-05
7.00174e-05
7.00203e-05
5.4022e-05
5.40308e-05
1.66363e-05
5.40229e-05
5.40319e-05
7.00173e-05
7.00142e-05
7.00186e-05
7.00152e-05
1.6643e-05
5.40224e-05
5.40328e-05
5.40204e-05
5.403e-05
4.30771e-05
6.9295e-05
4.30744e-05
6.92948e-05
2.23319e-05
3.83175e-05
1.56215e-05
1.60307e-05
2.23357e-05
3.83143e-05
1.56214e-05
2.23351e-05
3.83174e-05
1.56217e-05
1.6031e-05
2.23389e-05
3.8313e-05
1.56217e-05
4.3065e-05
6.92863e-05
6.92863e-05
4.30691e-05
4.30774e-05
6.92936e-05
6.92938e-05
4.30783e-05
2.23354e-05
1.60307e-05
3.83157e-05
1.56214e-05
3.83185e-05
1.56213e-05
2.23324e-05
2.23385e-05
1.6031e-05
3.8314e-05
1.56216e-05
3.83171e-05
1.56215e-05
2.23353e-05
5.40319e-05
5.40127e-05
1.66358e-05
5.40338e-05
5.40136e-05
7.00122e-05
7.00157e-05
7.0019e-05
7.00155e-05
1.66425e-05
5.40338e-05
5.40133e-05
5.40321e-05
5.40117e-05
7.00143e-05
7.00104e-05
2.23356e-05
3.83214e-05
1.56215e-05
1.60311e-05
2.23394e-05
3.83183e-05
1.56216e-05
4.30777e-05
6.92881e-05
4.30749e-05
6.92879e-05
2.23362e-05
1.56213e-05
3.83183e-05
1.60304e-05
2.234e-05
1.56212e-05
3.83151e-05
4.30707e-05
6.92924e-05
6.92926e-05
4.30752e-05
2.23389e-05
1.60312e-05
3.83202e-05
1.56216e-05
3.83229e-05
1.56216e-05
2.23359e-05
4.30776e-05
6.92869e-05
6.92869e-05
4.30802e-05
2.23396e-05
1.60305e-05
1.56212e-05
3.83169e-05
1.56211e-05
3.83199e-05
2.23364e-05
4.30788e-05
6.92925e-05
4.30751e-05
6.92923e-05
2.23324e-05
1.56217e-05
3.83116e-05
1.60311e-05
2.23358e-05
1.56217e-05
3.83083e-05
4.30789e-05
6.92893e-05
4.30759e-05
6.92891e-05
2.2337e-05
1.60304e-05
3.83077e-05
1.56216e-05
3.83109e-05
1.56216e-05
2.23353e-05
4.308e-05
6.92913e-05
6.92914e-05
4.30827e-05
2.23359e-05
1.60311e-05
1.56218e-05
3.83099e-05
1.56217e-05
3.83126e-05
2.23341e-05
4.30791e-05
6.92881e-05
6.92882e-05
4.30823e-05
5.40209e-05
5.40218e-05
1.66356e-05
5.4021e-05
5.40221e-05
7.00169e-05
7.00195e-05
7.00158e-05
7.00121e-05
1.66422e-05
5.40203e-05
5.40205e-05
5.4019e-05
5.40194e-05
7.00173e-05
7.00143e-05
2.23354e-05
1.56216e-05
3.8314e-05
1.60314e-05
2.23391e-05
1.56215e-05
3.83107e-05
4.30762e-05
6.92904e-05
4.30733e-05
6.929e-05
4.30791e-05
6.92925e-05
4.30765e-05
6.92922e-05
2.23388e-05
1.60311e-05
1.56214e-05
3.83145e-05
1.56214e-05
3.83174e-05
2.23362e-05
2.23386e-05
1.60314e-05
1.56215e-05
3.83129e-05
1.56214e-05
3.83152e-05
2.23356e-05
4.30762e-05
6.92889e-05
6.9289e-05
4.30774e-05
4.3079e-05
6.92912e-05
6.92913e-05
4.30809e-05
7.00133e-05
7.00166e-05
7.00147e-05
7.00179e-05
1.66437e-05
5.40177e-05
5.4029e-05
5.40153e-05
5.4027e-05
7.00153e-05
7.00117e-05
7.00165e-05
7.0013e-05
7.00123e-05
7.00157e-05
7.00136e-05
7.00173e-05
5.40213e-05
5.40315e-05
1.6638e-05
5.40234e-05
5.40336e-05
7.00147e-05
7.00108e-05
7.00165e-05
7.00124e-05
1.66447e-05
5.40243e-05
5.40361e-05
5.40222e-05
5.40327e-05
4.30804e-05
6.92926e-05
4.30771e-05
6.92925e-05
2.23339e-05
3.83201e-05
1.5622e-05
1.60315e-05
2.23361e-05
3.83173e-05
1.5622e-05
2.23368e-05
3.83184e-05
1.56222e-05
1.60317e-05
2.2339e-05
3.83155e-05
1.56222e-05
4.30714e-05
6.92847e-05
6.92845e-05
4.30752e-05
4.30793e-05
6.92917e-05
6.92915e-05
4.30835e-05
2.23379e-05
1.60316e-05
3.8319e-05
1.5622e-05
3.83217e-05
1.5622e-05
2.23365e-05
2.23409e-05
1.60318e-05
3.83174e-05
1.56222e-05
3.832e-05
1.56222e-05
2.23397e-05
5.40321e-05
5.40142e-05
1.66373e-05
5.4035e-05
5.40159e-05
7.00092e-05
7.00135e-05
7.00172e-05
7.0013e-05
1.6644e-05
5.40372e-05
5.40202e-05
5.40342e-05
5.40168e-05
7.0013e-05
7.00084e-05
2.2338e-05
3.83248e-05
1.56222e-05
1.60319e-05
2.23395e-05
3.83221e-05
1.56222e-05
4.30813e-05
6.9286e-05
4.30786e-05
6.9286e-05
2.2338e-05
1.56218e-05
3.83217e-05
1.60312e-05
2.234e-05
1.56218e-05
3.83189e-05
4.30765e-05
6.92909e-05
6.92907e-05
4.3082e-05
2.23423e-05
1.6032e-05
3.8324e-05
1.56222e-05
3.83267e-05
1.56221e-05
2.23423e-05
4.30814e-05
6.92854e-05
6.92852e-05
4.30855e-05
2.23421e-05
1.60313e-05
1.56218e-05
3.83209e-05
1.56218e-05
3.83237e-05
2.23417e-05
4.30852e-05
6.92904e-05
4.30812e-05
6.92902e-05
2.2338e-05
1.56224e-05
3.83144e-05
1.60318e-05
2.23382e-05
1.56224e-05
3.8312e-05
4.30846e-05
6.92872e-05
4.30808e-05
6.92871e-05
2.23429e-05
1.60311e-05
3.83113e-05
1.56223e-05
3.83141e-05
1.56223e-05
2.23423e-05
4.30864e-05
6.92896e-05
6.92894e-05
4.30892e-05
2.23425e-05
1.60319e-05
1.56225e-05
3.83141e-05
1.56224e-05
3.83165e-05
2.23423e-05
4.30857e-05
6.92864e-05
6.92862e-05
4.30888e-05
5.40211e-05
5.40186e-05
1.66372e-05
5.40232e-05
5.40216e-05
7.00124e-05
7.00159e-05
7.0014e-05
7.00095e-05
1.66439e-05
5.40262e-05
5.40252e-05
5.40241e-05
5.40212e-05
7.00152e-05
7.00111e-05
2.2338e-05
1.56222e-05
3.83174e-05
1.60322e-05
2.23393e-05
1.56222e-05
3.83149e-05
4.30794e-05
6.9288e-05
4.30759e-05
6.92879e-05
4.30829e-05
6.92903e-05
4.30809e-05
6.92903e-05
2.23442e-05
1.60318e-05
1.56221e-05
3.83185e-05
1.56221e-05
3.83208e-05
2.23442e-05
2.23423e-05
1.60322e-05
1.56222e-05
3.83171e-05
1.56221e-05
3.83195e-05
2.23424e-05
4.30785e-05
6.92872e-05
6.92871e-05
4.30825e-05
4.30813e-05
6.92899e-05
6.92895e-05
4.30862e-05
7.00104e-05
7.00143e-05
7.00116e-05
7.00156e-05
1.66451e-05
5.40218e-05
5.40353e-05
5.40189e-05
5.40304e-05
7.00137e-05
7.00096e-05
7.00151e-05
7.00108e-05
7.001e-05
7.00142e-05
7.00118e-05
7.00162e-05
5.40235e-05
5.40356e-05
1.66393e-05
5.40254e-05
5.4038e-05
7.00142e-05
7.00096e-05
7.00163e-05
7.00116e-05
1.66461e-05
5.40309e-05
5.4044e-05
5.40263e-05
5.40391e-05
4.30866e-05
6.92908e-05
4.30822e-05
6.92912e-05
2.23391e-05
3.83234e-05
1.56227e-05
1.60323e-05
2.23406e-05
3.83207e-05
1.56227e-05
2.23425e-05
3.83218e-05
1.56229e-05
1.60325e-05
2.23439e-05
3.83193e-05
1.56229e-05
4.30781e-05
6.92843e-05