/*--------------------------------*- C++ -*----------------------------------*\
| =========                 |                                                 |
| \\      /  F ield         | OpenFOAM: The Open Source CFD Toolbox           |
|  \\    /   O peration     | Version:  v1912                                 |
|   \\  /    A nd           | Website:  www.openfoam.com                      |
|    \\/     M anipulation  |                                                 |
\*---------------------------------------------------------------------------*/
FoamFile
{
    version     2.0;
    format      ascii;
    class       volScalarField;
    location    "80";
    object      nut;
}
// * * * * * * * * * * * * * * * * * * * * * * * * * * * * * * * * * * * * * //

dimensions      [0 2 -1 0 0 0 0];


internalField   nonuniform List<scalar> 
57062
(
0.000165636
0.000117453
0.000117449
9.19588e-05
0.000165639
0.00011745
0.000117447
9.19649e-05
0.000165638
0.000117448
0.000117445
9.19679e-05
0.000165634
0.000117449
0.000117444
9.19705e-05
0.000165634
0.000117449
0.000117443
9.19749e-05
0.000165632
0.000117449
0.000117442
9.19761e-05
0.000165634
0.000117449
0.000117441
9.19816e-05
0.000165636
0.000117451
0.000117442
9.19843e-05
0.000165622
0.000117453
0.000117443
9.19845e-05
0.00016561
0.000117451
0.000117441
9.19847e-05
0.000165596
0.000117445
0.00011742
9.19819e-05
0.000165589
0.000117424
0.000117411
9.19768e-05
0.000165583
0.000117413
0.000117402
9.19715e-05
0.00016558
0.000117407
0.000117391
9.19606e-05
0.000165561
0.000117391
0.000117375
9.19495e-05
0.00016555
0.000117378
0.000117364
9.19255e-05
0.000165493
0.000117334
0.00011732
9.18963e-05
0.000165525
0.00011736
0.000117344
9.18931e-05
0.000165537
0.00011737
0.000117356
9.19038e-05
0.000165551
0.000117375
0.000117362
9.19081e-05
0.000165559
0.000117377
0.000117364
9.19131e-05
0.00016556
0.00011738
0.000117367
9.19163e-05
0.000165558
0.000117385
0.000117373
9.19175e-05
0.000165559
0.000117391
0.000117379
9.19186e-05
0.00016556
0.0001174
0.000117387
9.19197e-05
0.000165562
0.000117413
0.0001174
9.19225e-05
0.000165568
0.000117433
0.000117421
9.19278e-05
0.000165577
0.000117465
0.000117452
9.19367e-05
0.000165596
0.000117486
0.000117474
9.19511e-05
0.000167858
0.000120815
0.000120812
9.51744e-05
9.21054e-05
0.000117434
0.000117413
9.21147e-05
0.00011745
0.000117419
0.000117453
0.000117431
9.21021e-05
0.000117448
0.00011745
9.21052e-05
9.19651e-05
9.21204e-05
0.000117434
0.000117415
0.00011743
0.00011741
9.19686e-05
9.2123e-05
0.00011745
0.000117419
0.000117445
0.000117414
0.000117433
0.000117451
0.000117427
9.19623e-05
9.21188e-05
0.000117452
0.000117449
0.000117447
9.21135e-05
9.19729e-05
9.21211e-05
0.000117432
0.000117413
0.000117429
0.00011741
9.19755e-05
9.21257e-05
0.000117447
0.000117415
0.000117444
0.000117411
0.000117429
0.000117448
0.000117425
9.19713e-05
9.21194e-05
0.000117449
0.000117445
0.000117445
9.2118e-05
9.1973e-05
9.21237e-05
0.000117431
0.000117413
0.000117429
0.000117411
9.19776e-05
9.21314e-05
0.000117446
0.000117413
0.000117445
0.00011741
0.000117428
0.000117449
0.000117426
9.19711e-05
9.212e-05
0.000117448
0.000117444
0.000117446
9.2121e-05
9.19758e-05
9.21292e-05
0.000117431
0.000117414
0.00011743
0.000117411
9.19829e-05
9.21305e-05
0.000117447
0.000117413
0.000117445
0.000117409
0.00011743
0.000117449
0.000117427
9.1972e-05
9.21251e-05
0.000117449
0.000117443
0.000117447
9.21253e-05
9.19807e-05
9.21254e-05
0.000117433
0.000117414
0.00011743
0.000117412
9.19836e-05
9.21325e-05
0.000117448
0.000117412
0.000117446
0.000117408
0.00011743
0.000117449
0.000117428
9.19769e-05
9.2121e-05
0.00011745
0.000117442
0.000117447
9.21264e-05
9.19769e-05
9.21313e-05
0.000117434
0.000117415
0.000117431
0.000117412
9.19828e-05
9.21395e-05
0.00011745
0.00011741
0.000117447
0.000117408
0.000117431
0.000117449
0.000117429
9.19728e-05
9.21276e-05
0.00011745
0.000117442
0.000117449
9.21313e-05
9.1984e-05
9.213e-05
0.000117435
0.000117415
0.000117432
0.000117413
9.19904e-05
9.21406e-05
0.000117451
0.000117411
0.000117448
0.00011741
0.000117432
0.000117451
0.00011743
9.198e-05
9.21254e-05
0.000117452
0.000117442
0.000117451
9.21327e-05
9.19827e-05
9.21322e-05
0.000117437
0.000117415
0.000117432
0.000117415
9.19936e-05
9.21407e-05
0.000117454
0.000117414
0.000117449
0.000117411
0.000117433
0.000117453
0.000117432
9.1979e-05
9.21273e-05
0.000117455
0.000117443
0.000117452
9.21329e-05
9.19848e-05
9.21332e-05
0.000117436
0.000117417
0.000117429
0.000117413
9.19942e-05
9.21409e-05
0.000117453
0.000117416
0.000117443
0.000117407
0.000117436
0.000117451
0.000117432
9.19809e-05
9.21263e-05
0.000117456
0.000117443
0.00011745
9.21322e-05
9.1986e-05
9.21284e-05
0.000117427
0.000117417
0.000117412
0.00011741
9.19946e-05
9.21397e-05
0.000117443
0.000117407
0.00011743
0.000117392
0.000117436
0.000117448
0.000117428
9.19795e-05
9.21224e-05
0.000117454
0.000117428
0.000117445
9.21299e-05
9.19815e-05
9.21237e-05
0.000117412
0.000117407
0.000117399
0.000117387
9.19924e-05
9.21327e-05
0.00011743
0.000117391
0.000117416
0.000117377
0.000117423
0.00011743
0.000117406
9.19749e-05
9.21126e-05
0.000117443
0.000117414
0.000117429
9.21253e-05
9.19763e-05
9.2117e-05
0.0001174
0.000117382
0.000117393
0.000117367
9.19847e-05
9.21223e-05
0.000117417
0.000117378
0.000117408
0.000117373
0.000117405
0.000117414
0.000117392
9.19656e-05
9.21061e-05
0.000117428
0.000117404
0.000117414
9.21198e-05
9.19704e-05
9.21137e-05
0.000117398
0.000117366
0.000117393
0.000117359
9.19754e-05
9.21138e-05
0.000117412
0.000117379
0.000117412
0.000117375
0.00011739
0.000117408
0.00011738
9.19597e-05
9.21039e-05
0.000117412
0.000117393
0.000117399
9.21086e-05
9.19672e-05
9.21063e-05
0.000117389
0.000117359
0.000117367
0.000117345
9.19662e-05
9.21068e-05
0.000117416
0.000117374
0.000117395
0.00011735
0.00011738
0.000117396
0.000117366
9.19564e-05
9.20968e-05
0.000117399
0.00011738
0.000117385
9.20998e-05
9.19567e-05
9.20881e-05
0.000117363
0.000117343
0.000117348
0.00011733
9.19571e-05
9.20897e-05
0.00011739
0.000117345
0.000117371
0.000117324
0.000117363
0.000117382
0.00011735
9.19472e-05
9.20794e-05
0.000117382
0.000117366
0.000117369
9.20778e-05
9.19389e-05
9.20669e-05
0.000117347
0.000117329
0.00011731
0.000117285
9.19396e-05
9.20631e-05
0.00011737
0.000117323
0.000117333
0.000117288
0.000117348
0.000117334
0.0001173
9.19304e-05
9.20585e-05
0.000117368
0.00011733
0.000117323
9.20535e-05
9.19138e-05
9.20497e-05
0.000117305
0.000117283
0.000117318
0.000117298
9.19092e-05
9.20558e-05
0.000117325
0.00011728
0.000117336
0.000117288
0.000117299
0.000117357
0.000117313
9.19055e-05
9.20419e-05
0.000117319
0.00011734
0.000117332
9.20439e-05
9.19027e-05
9.20599e-05
0.000117329
0.000117308
0.000117334
0.000117312
9.1908e-05
9.20647e-05
0.000117347
0.000117299
0.000117353
0.000117305
0.000117323
0.000117369
0.000117326
9.1895e-05
9.2052e-05
0.000117342
0.000117355
0.000117346
9.20557e-05
9.19119e-05
9.20647e-05
0.000117341
0.000117318
0.000117341
0.000117318
9.19161e-05
9.20699e-05
0.000117359
0.000117311
0.00011736
0.000117312
0.000117332
0.000117375
0.000117332
9.1904e-05
9.20571e-05
0.000117352
0.000117362
0.000117352
9.20584e-05
9.1917e-05
9.20676e-05
0.000117347
0.000117324
0.000117347
0.000117324
9.1921e-05
9.20728e-05
0.000117366
0.000117318
0.000117366
0.000117318
0.000117338
0.000117377
0.000117338
9.19092e-05
9.20591e-05
0.000117358
0.000117365
0.000117358
9.20613e-05
9.19203e-05
9.20701e-05
0.000117353
0.00011733
0.00011735
0.000117331
9.19255e-05
9.20723e-05
0.000117371
0.000117323
0.000117368
0.000117324
0.000117343
0.00011738
0.000117345
9.19123e-05
9.20598e-05
0.000117364
0.000117367
0.000117365
9.20632e-05
9.19218e-05
9.20715e-05
0.000117354
0.000117336
0.000117352
0.000117334
9.19257e-05
9.20732e-05
0.000117372
0.00011733
0.00011737
0.000117328
0.000117351
0.000117385
0.000117352
9.19128e-05
9.2062e-05
0.00011737
0.000117373
0.000117371
9.20642e-05
9.19248e-05
9.20709e-05
0.000117356
0.000117338
0.000117355
0.000117338
9.19263e-05
9.20754e-05
0.000117374
0.000117332
0.000117374
0.000117333
0.000117356
0.000117391
0.000117355
9.19157e-05
9.20637e-05
0.000117375
0.000117379
0.000117375
9.20662e-05
9.19244e-05
9.20743e-05
0.000117359
0.000117342
0.000117361
0.000117344
9.19281e-05
9.20785e-05
0.000117378
0.000117337
0.00011738
0.000117338
0.000117359
0.000117399
0.00011736
9.19175e-05
9.20672e-05
0.000117379
0.000117386
0.00011738
9.20671e-05
9.19277e-05
9.20781e-05
0.000117367
0.00011735
0.000117373
0.000117356
9.19312e-05
9.20833e-05
0.000117386
0.000117344
0.000117392
0.00011735
0.000117366
0.00011741
0.000117372
9.19211e-05
9.20714e-05
0.000117386
0.000117397
0.000117392
9.20699e-05
9.1932e-05
9.20828e-05
0.000117381
0.000117363
0.000117392
0.000117374
9.19361e-05
9.20893e-05
0.0001174
0.000117358
0.000117411
0.000117369
0.00011738
0.000117429
0.000117391
9.1926e-05
9.20767e-05
0.000117399
0.000117417
0.00011741
9.2075e-05
9.19373e-05
9.20902e-05
0.000117402
0.000117384
0.000117422
0.000117406
9.1943e-05
9.20965e-05
0.000117421
0.000117378
0.000117441
0.000117399
0.0001174
0.00011746
0.000117422
9.19318e-05
9.20833e-05
0.000117419
0.000117448
0.000117442
9.20824e-05
9.19451e-05
9.21081e-05
0.000117432
0.000117416
0.0001175
0.000117485
9.19509e-05
9.21149e-05
0.000117451
0.00011741
0.000117521
0.00011748
0.000117432
0.00011754
0.000117499
9.1939e-05
9.21017e-05
0.000117452
0.000117529
0.000117522
9.21013e-05
9.19549e-05
9.34727e-05
0.000117448
0.000117433
0.000119621
0.000119607
9.19613e-05
9.34772e-05
0.000117469
0.000117426
0.000119635
0.000119607
0.000117446
0.00011965
0.000119621
9.19491e-05
9.3469e-05
0.00011747
0.000119645
0.000119638
9.34712e-05
9.51779e-05
0.000120796
0.000120783
9.51808e-05
0.000120808
0.000120783
0.000167859
0.00016786
0.00016786
0.000120796
9.51739e-05
0.00012081
0.000165636
0.000165637
0.000165627
0.000165639
5.65521e-05
4.92899e-05
5.6551e-05
4.92898e-05
2.36928e-05
2.36933e-05
5.65667e-05
4.92874e-05
5.65657e-05
4.92872e-05
0.000165643
0.000165627
0.000165649
0.000165639
0.000165638
0.000165626
0.000165642
5.85266e-05
5.68598e-05
0.00014294
0.000117456
5.85092e-05
5.68666e-05
0.000142946
2.36904e-05
2.36909e-05
5.85332e-05
0.000142937
5.68727e-05
0.000117453
5.85188e-05
0.00014294
5.68795e-05
5.52776e-05
5.52806e-05
9.21223e-05
5.52817e-05
5.52841e-05
5.65633e-05
4.92892e-05
5.65619e-05
4.92892e-05
2.36922e-05
2.36929e-05
5.65762e-05
4.92866e-05
5.65723e-05
4.92865e-05
0.000165639
0.000165628
0.00016564
0.00016564
0.000165636
0.000165625
0.000165636
5.85606e-05
5.68697e-05
0.000142944
0.000117452
5.85426e-05
5.68756e-05
0.000142949
2.36897e-05
2.36904e-05
5.85646e-05
0.000142939
5.68829e-05
0.000117449
5.85445e-05
0.000142944
5.68891e-05
5.52818e-05
5.52825e-05
9.21244e-05
5.52846e-05
5.52854e-05
5.65738e-05
4.92887e-05
5.65718e-05
4.92888e-05
2.36919e-05
2.36927e-05
5.65875e-05
4.92861e-05
5.65843e-05
4.92862e-05
0.00016564
0.000165628
0.000165638
0.000165634
0.000165639
0.000165626
0.000165635
5.85861e-05
5.68779e-05
0.000142947
0.000117451
5.8575e-05
5.68835e-05
0.000142952
2.36894e-05
2.36903e-05
5.85989e-05
0.000142942
5.68919e-05
0.000117447
5.85857e-05
0.000142948
5.68973e-05
5.52886e-05
5.52926e-05
9.21244e-05
5.52949e-05
5.52963e-05
5.65822e-05
4.92887e-05
5.65807e-05
4.9289e-05
2.36919e-05
2.36928e-05
5.65964e-05
4.92861e-05
5.6594e-05
4.92863e-05
0.000165642
0.000165629
0.000165634
0.000165633
0.000165637
0.000165625
0.000165633
5.85945e-05
5.68852e-05
0.000142949
0.000117452
5.85872e-05
5.68907e-05
0.000142955
2.36894e-05
2.36904e-05
5.86012e-05
0.000142945
5.68985e-05
0.000117447
5.85971e-05
0.000142951
5.69034e-05
5.52967e-05
5.52986e-05
9.21279e-05
5.52998e-05
5.53039e-05
5.65899e-05
4.92892e-05
5.65885e-05
4.92896e-05
2.36921e-05
2.36929e-05
5.66028e-05
4.92864e-05
5.66007e-05
4.92868e-05
0.000165638
0.000165624
0.000165636
0.000165632
0.000165635
0.000165624
0.000165633
5.8601e-05
5.68927e-05
0.000142951
0.000117453
5.8594e-05
5.68985e-05
0.000142954
2.36896e-05
2.36905e-05
5.85997e-05
0.000142949
5.69037e-05
0.000117446
5.85949e-05
0.000142953
5.69079e-05
5.52983e-05
5.53012e-05
9.21311e-05
5.53014e-05
5.53065e-05
5.65957e-05
4.92898e-05
5.65951e-05
4.92901e-05
2.36922e-05
2.36931e-05
5.66097e-05
4.9287e-05
5.66077e-05
4.92873e-05
0.000165638
0.000165629
0.000165634
0.000165634
0.000165636
0.000165624
0.000165631
5.86062e-05
5.69001e-05
0.000142946
0.000117452
5.85997e-05
5.69049e-05
0.000142953
2.36898e-05
2.36907e-05
5.86017e-05
0.000142946
5.69075e-05
0.000117445
5.85959e-05
0.000142949
5.69112e-05
5.52995e-05
5.53057e-05
9.21325e-05
5.53036e-05
5.53076e-05
5.66012e-05
4.92901e-05
5.66007e-05
4.92904e-05
2.36924e-05
2.36933e-05
5.66156e-05
4.92874e-05
5.66133e-05
4.92876e-05
0.000165639
0.000165627
0.000165632
0.000165637
0.000165638
0.000165625
0.00016563
5.86103e-05
5.6904e-05
0.000142948
0.000117453
5.86042e-05
5.69073e-05
0.000142954
2.36899e-05
2.36908e-05
5.86051e-05
0.000142946
5.69098e-05
0.000117445
5.8599e-05
0.000142952
5.69133e-05
5.53029e-05
5.53041e-05
9.2135e-05
5.53054e-05
5.53075e-05
5.66058e-05
4.92904e-05
5.66038e-05
4.92906e-05
2.36926e-05
2.36935e-05
5.66207e-05
4.92877e-05
5.66183e-05
4.9288e-05
0.000165642
0.000165631
0.000165634
0.000165625
0.000165637
0.000165628
0.000165621
5.86139e-05
5.69047e-05
0.000142948
0.000117455
5.86078e-05
5.69076e-05
0.000142954
2.36901e-05
2.3691e-05
5.86095e-05
0.000142947
5.69116e-05
0.000117445
5.86033e-05
0.000142952
5.69146e-05
5.53033e-05
5.53053e-05
9.21387e-05
5.53061e-05
5.53083e-05
5.66101e-05
4.92906e-05
5.66101e-05
4.92909e-05
2.36928e-05
2.36937e-05
5.6624e-05
4.92879e-05
5.66252e-05
4.92881e-05
0.000165627
0.000165631
0.000165623
0.000165612
0.00016561
0.000165629
0.000165618
5.86178e-05
5.69054e-05
0.000142943
0.000117455
5.86116e-05
5.69086e-05
0.000142935
2.36903e-05
2.36912e-05
5.86137e-05
0.000142941
5.69127e-05
0.000117446
5.86077e-05
0.000142935
5.6916e-05
5.53042e-05
5.53063e-05
9.2138e-05
5.5307e-05
5.53094e-05
5.66123e-05
4.92909e-05
5.66131e-05
4.92911e-05
2.3693e-05
2.36939e-05
5.66271e-05
4.92881e-05
5.66284e-05
4.92883e-05
0.000165609
0.000165633
0.000165616
0.000165601
0.000165604
0.000165621
0.0001656
5.8621e-05
5.69066e-05
0.000142921
0.000117452
5.86152e-05
5.69097e-05
0.000142917
2.36905e-05
2.36914e-05
5.86162e-05
0.000142916
5.69142e-05
0.000117441
5.8611e-05
0.000142914
5.69175e-05
5.53049e-05
5.53076e-05
9.21381e-05
5.53077e-05
5.531e-05
5.66127e-05
4.9291e-05
5.66139e-05
4.92913e-05
2.36932e-05
2.36941e-05
5.6628e-05
4.92884e-05
5.66298e-05
4.92886e-05
0.000165601
0.000165614
0.0001656
0.000165595
0.000165589
0.000165584
0.000165593
5.86232e-05
5.69073e-05
0.000142912
0.000117443
5.86178e-05
5.69102e-05
0.00014291
2.36906e-05
2.36916e-05
5.86174e-05
0.000142902
5.69155e-05
0.000117421
5.86126e-05
0.0001429
5.69185e-05
5.53046e-05
5.5307e-05
9.21349e-05
5.53074e-05
5.53093e-05
5.66125e-05
4.92912e-05
5.6614e-05
4.92914e-05
2.36934e-05
2.36942e-05
5.66279e-05
4.92886e-05
5.66299e-05
4.92887e-05
0.000165587
0.000165588
0.000165593
0.000165583
0.000165581
0.000165585
0.000165586
5.86244e-05
5.69073e-05
0.000142902
0.000117423
5.86194e-05
5.691e-05
0.000142901
2.36907e-05
2.36916e-05
5.86178e-05
0.000142893
5.69161e-05
0.000117409
5.86133e-05
0.000142892
5.69188e-05
5.53049e-05
5.53075e-05
9.21292e-05
5.53076e-05
5.53097e-05
5.6611e-05
4.92913e-05
5.66129e-05
4.92914e-05
2.36934e-05
2.36942e-05
5.66265e-05
4.92886e-05
5.6629e-05
4.92887e-05
0.000165581
0.000165585
0.000165585
0.000165582
0.00016558
0.000165576
0.000165576
5.86239e-05
5.69067e-05
0.000142897
0.000117412
5.86197e-05
5.69091e-05
0.000142896
2.36908e-05
2.36916e-05
5.86175e-05
0.000142893
5.69157e-05
0.000117401
5.86132e-05
0.000142892
5.69181e-05
5.53041e-05
5.53066e-05
9.21222e-05
5.53068e-05
5.5309e-05
5.66088e-05
4.92913e-05
5.66107e-05
4.92915e-05
2.36933e-05
2.36941e-05
5.66247e-05
4.92885e-05
5.66271e-05
4.92887e-05
0.000165579
0.000165572
0.000165576
0.000165567
0.000165564
0.000165553
0.000165561
5.86201e-05
5.69054e-05
0.000142891
0.000117406
5.86173e-05
5.69074e-05
0.000142889
2.36907e-05
2.36916e-05
5.86145e-05
0.000142884
5.69147e-05
0.00011739
5.86116e-05
0.000142882
5.69168e-05
5.53029e-05
5.5306e-05
9.21161e-05
5.53056e-05
5.5308e-05
5.66099e-05
4.92913e-05
5.66106e-05
4.92915e-05
2.36932e-05
2.3694e-05
5.6626e-05
4.92887e-05
5.6628e-05
4.92888e-05
0.000165561
0.000165549
0.000165558
0.00016555
0.000165549
0.000165533
0.000165543
5.86126e-05
5.69035e-05
0.000142872
0.00011739
5.8611e-05
5.69058e-05
0.000142869
2.36906e-05
2.36914e-05
5.86074e-05
0.000142866
5.69131e-05
0.000117375
5.86059e-05
0.000142864
5.69152e-05
5.53037e-05
5.53046e-05
9.21012e-05
5.53068e-05
5.53086e-05
5.66098e-05
4.92913e-05
5.66111e-05
4.92913e-05
2.3693e-05
2.36938e-05
5.66255e-05
4.92886e-05
5.66275e-05
4.92886e-05
0.000165547
0.000165532
0.000165541
0.000165499
0.000165492
0.000165491
0.000165484
5.86026e-05
5.69025e-05
0.000142857
0.000117369
5.86023e-05
5.69046e-05
0.000142847
2.36904e-05
2.36913e-05
5.85976e-05
0.000142855
5.69119e-05
0.000117362
5.85972e-05
0.00014285
5.69142e-05
5.53049e-05
5.53067e-05
9.20789e-05
5.53069e-05
5.53083e-05
5.66079e-05
4.9291e-05
5.66097e-05
4.92911e-05
2.36929e-05
2.36938e-05
5.66233e-05
4.92883e-05
5.66261e-05
4.92883e-05
0.000165496
0.000165484
0.000165486
0.000165524
0.000165506
0.000165495
0.000165495
5.8592e-05
5.69009e-05
0.000142811
0.000117346
5.85911e-05
5.69029e-05
0.000142826
2.36903e-05
2.36912e-05
5.85865e-05
0.000142803
5.69107e-05
0.000117326
5.85861e-05
0.000142816
5.69129e-05
5.53044e-05
5.53049e-05
9.20412e-05
5.53058e-05
5.53068e-05
5.66046e-05
4.92908e-05
5.66066e-05
4.9291e-05
2.36929e-05
2.36938e-05
5.66203e-05
4.9288e-05
5.66229e-05
4.9288e-05
0.000165517
0.000165505
0.000165505
0.000165537
0.000165521
0.000165508
0.000165508
5.85874e-05
5.68997e-05
0.000142841
0.000117368
5.85843e-05
5.69019e-05
0.000142848
2.36902e-05
2.36912e-05
5.85807e-05
0.000142838
5.69101e-05
0.000117353
5.8578e-05
0.000142848
5.69125e-05
5.5304e-05
5.53047e-05
9.205e-05
5.53057e-05
5.53065e-05
5.66019e-05
4.92909e-05
5.66033e-05
4.92912e-05
2.36929e-05
2.36939e-05
5.66169e-05
4.9288e-05
5.66194e-05
4.92883e-05
0.000165532
0.00016552
0.000165519
0.00016555
0.000165535
0.000165523
0.000165522
5.85859e-05
5.68994e-05
0.000142851
0.000117376
5.8582e-05
5.69018e-05
0.00014286
2.36902e-05
2.36912e-05
5.85787e-05
0.00014285
5.69102e-05
0.000117362
5.85751e-05
0.000142857
5.69124e-05
5.53049e-05
5.53065e-05
9.20549e-05
5.53075e-05
5.5309e-05
5.65997e-05
4.9291e-05
5.66007e-05
4.92914e-05
2.36928e-05
2.36939e-05
5.6614e-05
4.92883e-05
5.6616e-05
4.92888e-05
0.000165546
0.000165534
0.000165532
0.000165559
0.00016555
0.000165538
0.000165537
5.85856e-05
5.69002e-05
0.000142859
0.00011738
5.85816e-05
5.69026e-05
0.000142865
2.36901e-05
2.36913e-05
5.85778e-05
0.000142858
5.69108e-05
0.000117368
5.85741e-05
0.000142863
5.6913e-05
5.53081e-05
5.53094e-05
9.20604e-05
5.5308e-05
5.53094e-05
5.65978e-05
4.92912e-05
5.65986e-05
4.92917e-05
2.36927e-05
2.3694e-05
5.66114e-05
4.92886e-05
5.66131e-05
4.92892e-05
0.000165561
0.000165549
0.000165547
0.000165561
0.000165558
0.000165548
0.000165552
5.85852e-05
5.69021e-05
0.000142861
0.000117382
5.85816e-05
5.69042e-05
0.000142864
2.369e-05
2.36914e-05
5.85772e-05
0.000142861
5.69124e-05
0.000117369
5.85737e-05
0.000142867
5.69144e-05
5.53076e-05
5.53096e-05
9.2068e-05
5.53078e-05
5.53099e-05
5.65956e-05
4.92912e-05
5.65966e-05
4.92919e-05
2.36925e-05
2.36941e-05
5.66088e-05
4.92888e-05
5.66104e-05
4.92896e-05
0.000165561
0.000165552
0.000165561
0.000165558
0.00016556
0.000165549
0.000165556
5.85843e-05
5.69053e-05
0.000142863
0.000117386
5.85813e-05
5.69071e-05
0.000142869
2.36899e-05
2.36916e-05
5.85764e-05
0.000142862
5.69152e-05
0.000117374
5.85734e-05
0.000142863
5.69168e-05
5.53095e-05
5.53113e-05
9.20727e-05
5.53101e-05
5.53118e-05
5.65931e-05
4.92912e-05
5.65941e-05
4.92923e-05
2.36923e-05
2.36944e-05
5.66062e-05
4.9289e-05
5.66077e-05
4.929e-05
0.000165563
0.000165553
0.00016556
0.000165559
0.00016556
0.00016555
0.000165557
5.85831e-05
5.6911e-05
0.000142866
0.000117392
5.85807e-05
5.69121e-05
0.000142868
2.36898e-05
2.36919e-05
5.85753e-05
0.000142864
5.69204e-05
0.00011738
5.8573e-05
0.000142871
5.69213e-05
5.53162e-05
5.53177e-05
9.20749e-05
5.53166e-05
5.5318e-05
5.65907e-05
4.92915e-05
5.65915e-05
4.92935e-05
2.36921e-05
2.36949e-05
5.66036e-05
4.9289e-05
5.66049e-05
4.92909e-05
0.000165563
0.000165553
0.00016556
0.00016556
0.000165561
0.000165551
0.000165557
5.85819e-05
5.69207e-05
0.000142868
0.000117398
5.85806e-05
5.69204e-05
0.000142874
2.36896e-05
2.36925e-05
5.85742e-05
0.000142867
5.69295e-05
0.000117386
5.85729e-05
0.00014287
5.69288e-05
5.53262e-05
5.53276e-05
9.20757e-05
5.532e-05
5.53213e-05
5.65891e-05
4.92924e-05
5.65895e-05
4.92957e-05
2.36917e-05
2.36956e-05
5.66017e-05
4.92897e-05
5.66025e-05
4.92929e-05
0.000165564
0.000165554
0.00016556
0.000165562
0.000165563
0.000165553
0.000165558
5.85815e-05
5.6936e-05
0.000142875
0.000117406
5.85816e-05
5.69322e-05
0.00014288
2.36893e-05
2.36933e-05
5.85738e-05
0.000142871
5.69438e-05
0.000117393
5.85738e-05
0.000142876
5.69395e-05
5.5326e-05
5.53273e-05
9.20796e-05
5.53092e-05
5.53105e-05
5.6589e-05
4.92934e-05
5.65889e-05
4.92982e-05
2.36909e-05
2.36964e-05
5.66022e-05
4.92905e-05
5.66026e-05
4.92952e-05
0.000165566
0.000165556
0.000165562
0.000165569
0.000165564
0.000165554
0.000165559
5.85822e-05
5.69581e-05
0.000142881
0.000117421
5.85848e-05
5.6942e-05
0.000142881
2.36887e-05
2.36943e-05
5.85747e-05
0.000142878
5.69638e-05
0.000117409
5.85772e-05
0.000142879
5.69459e-05
5.5312e-05
5.53133e-05
9.20837e-05
5.52807e-05
5.5282e-05
5.66e-05
4.9292e-05
5.6593e-05
4.92988e-05
2.36894e-05
2.36971e-05
5.66117e-05
4.92893e-05
5.6606e-05
4.92961e-05
0.000165567
0.000165557
0.000165562
0.000165577
0.000165567
0.000165557
0.000165562
5.8584e-05
5.69662e-05
0.000142887
0.000117446
5.85917e-05
5.69219e-05
0.000142889
2.36874e-05
2.36951e-05
5.85768e-05
0.000142886
5.69676e-05
0.000117434
5.85843e-05
0.000142887
5.69218e-05
5.52809e-05
5.52823e-05
9.20891e-05
5.52275e-05
5.52292e-05
5.657e-05
4.92861e-05
5.65755e-05
4.92973e-05
2.36868e-05
2.36974e-05
5.65821e-05
4.92835e-05
5.65877e-05
4.92946e-05
0.000165571
0.000165561
0.000165566
0.000165605
0.000165606
0.000165597
0.000165601
5.85815e-05
5.69484e-05
0.000142902
0.000117488
5.86017e-05
5.68595e-05
0.000142907
2.3685e-05
2.36956e-05
5.85746e-05
0.0001429
5.69465e-05
0.000117476
5.85949e-05
0.000142907
5.68568e-05
5.52246e-05
5.52266e-05
9.20986e-05
5.51386e-05
5.51407e-05
5.65171e-05
4.92771e-05
5.65352e-05
4.93161e-05
2.36848e-05
2.37071e-05
5.65277e-05
4.9274e-05
5.65469e-05
4.93136e-05
0.000165601
0.000165593
0.000165596
0.000166217
0.000166222
0.000166218
0.00016622
5.85881e-05
5.69008e-05
0.000143019
0.000117811
5.86197e-05
5.67435e-05
0.000142875
2.36828e-05
2.37053e-05
5.85818e-05
0.000143016
5.68979e-05
0.000117802
5.86131e-05
0.000142872
5.6741e-05
5.51317e-05
5.51339e-05
9.23488e-05
5.49989e-05
5.50024e-05
5.44668e-05
5.2859e-05
5.63484e-05
9.21798e-05
2.6624e-05
3.86828e-05
5.44733e-05
5.28557e-05
5.63553e-05
9.21756e-05
0.000202184
0.000186718
0.000186732
0.000163488
0.000201609
0.000184819
0.000184831
5.9412e-05
5.64732e-05
0.000145666
0.000123794
5.86981e-05
6.46372e-05
0.00014967
2.66226e-05
3.86842e-05
5.94061e-05
0.000145664
5.64716e-05
0.000123791
5.86918e-05
0.000149669
6.46352e-05
5.54939e-05
5.54941e-05
9.93431e-05
5.60388e-05
5.60427e-05
2.36946e-05
2.3693e-05
5.52855e-05
5.52851e-05
4.92902e-05
5.65531e-05
4.92917e-05
4.92917e-05
5.65704e-05
5.68744e-05
0.000142947
5.85175e-05
0.000117413
5.68625e-05
0.00014294
5.6857e-05
5.85232e-05
2.36937e-05
2.36932e-05
9.19425e-05
5.52909e-05
5.5278e-05
5.52833e-05
5.52683e-05
2.3694e-05
2.36934e-05
4.92876e-05
5.65679e-05
5.68772e-05
0.000142945
5.85215e-05
4.92834e-05
5.65711e-05
0.000142936
5.68703e-05
5.85233e-05
5.84975e-05
0.000117451
5.68612e-05
0.000142941
5.68559e-05
0.000142941
5.85102e-05
5.65635e-05
4.92902e-05
4.92902e-05
5.65746e-05
5.84977e-05
0.000117431
0.000142944
5.68552e-05
0.000142944
5.68506e-05
5.85102e-05
5.65622e-05
4.92866e-05
4.92867e-05
5.65733e-05
2.36914e-05
5.5269e-05
5.52854e-05
2.36936e-05
0.000142938
5.68744e-05
5.852e-05
0.000117449
0.000142951
5.68535e-05
5.68503e-05
5.85206e-05
4.92867e-05
5.65669e-05
4.92867e-05
4.92868e-05
5.65747e-05
9.19429e-05
5.52799e-05
5.5283e-05
5.52702e-05
5.52728e-05
2.36927e-05
2.36923e-05
2.36921e-05
2.36916e-05
2.36937e-05
2.36941e-05
2.36921e-05
2.36925e-05
5.52826e-05
5.52819e-05
9.2119e-05
5.52887e-05
5.52882e-05
2.36938e-05
2.36933e-05
2.36923e-05
2.36917e-05
9.19696e-05
5.52893e-05
5.52904e-05
5.52822e-05
5.52825e-05
5.65745e-05
4.92913e-05
5.65638e-05
4.92913e-05
5.85312e-05
5.68726e-05
0.000142947
0.000117434
5.85165e-05
5.68839e-05
0.000142945
5.85367e-05
5.68572e-05
0.00014294
0.000117415
5.85223e-05
5.68685e-05
0.000142938
5.65498e-05
4.92895e-05
4.92895e-05
5.65628e-05
5.65702e-05
4.92908e-05
4.92909e-05
5.65761e-05
5.85268e-05
0.000117432
5.68886e-05
0.000142942
5.68777e-05
0.000142943
5.85416e-05
5.85322e-05
0.000117412
5.68741e-05
0.000142935
5.68621e-05
0.000142935
5.8546e-05
5.52845e-05
5.5271e-05
9.21202e-05
5.52913e-05
5.52768e-05
2.3693e-05
2.36936e-05
2.36931e-05
2.36925e-05
9.19707e-05
5.52916e-05
5.52763e-05
5.52858e-05
5.527e-05
2.36934e-05
2.36927e-05
5.8535e-05
5.68745e-05
0.000142945
0.00011745
5.85205e-05
5.68854e-05
0.000142945
5.65754e-05
4.92831e-05
5.65647e-05
4.9283e-05
5.85369e-05
0.000142936
5.68669e-05
0.000117419
5.85223e-05
0.000142934
5.68776e-05
5.65586e-05
4.92868e-05
4.92869e-05
5.65723e-05
5.85302e-05
0.000117448
5.68893e-05
0.000142944
5.68787e-05
0.000142945
5.85446e-05
5.65713e-05
4.92827e-05
4.92827e-05
5.65805e-05
5.85324e-05
0.000117417
0.000142931
5.68814e-05
0.000142931
5.68709e-05
5.85463e-05
5.65771e-05
4.92899e-05
5.65652e-05
4.92898e-05
5.85228e-05
0.000142947
5.68505e-05
0.000117432
5.85059e-05
0.000142946
5.68656e-05
5.6578e-05
4.92863e-05
5.65677e-05
4.92862e-05
5.85239e-05
0.000117453
5.68713e-05
0.000142944
5.68603e-05
0.000142945
5.85432e-05
5.65746e-05
4.92894e-05
4.92895e-05
5.65837e-05
5.85193e-05
0.000117429
0.000142945
5.68724e-05
0.000142945
5.68599e-05
5.85382e-05
5.65728e-05
4.92859e-05
4.92859e-05
5.65833e-05
5.52655e-05
5.52822e-05
9.21176e-05
5.52708e-05
5.52874e-05
2.36927e-05
2.36931e-05
2.36906e-05
2.369e-05
9.19685e-05
5.52704e-05
5.52864e-05
5.52638e-05
5.52805e-05
2.36927e-05
2.36922e-05
5.85342e-05
0.00014295
5.6848e-05
0.000117451
5.85196e-05
0.000142948
5.68627e-05
5.65721e-05
4.92863e-05
5.65606e-05
4.92861e-05
5.65782e-05
4.92863e-05
5.65682e-05
4.92862e-05
5.85287e-05
0.000117451
0.000142939
5.68845e-05
0.00014294
5.68733e-05
5.85455e-05
5.85294e-05
0.000117449
0.000142945
5.6872e-05
0.000142945
5.68577e-05
5.85438e-05
5.65667e-05
4.92858e-05
4.92858e-05
5.6574e-05
5.65738e-05
4.92859e-05
4.92859e-05
5.65814e-05
2.36919e-05
2.36924e-05
2.36912e-05
2.36918e-05
9.19705e-05
5.52836e-05
5.52848e-05
5.52766e-05
5.52785e-05
2.36922e-05
2.36916e-05
2.36915e-05
2.36909e-05
2.36929e-05
2.36935e-05
2.36914e-05
2.3692e-05
5.52851e-05
5.52857e-05
9.2122e-05
5.52916e-05
5.52919e-05
2.36933e-05
2.36927e-05
2.36919e-05
2.36912e-05
9.19724e-05
5.52932e-05
5.52956e-05
5.52871e-05
5.52877e-05
5.65793e-05
4.92905e-05
5.6568e-05
4.92904e-05
5.85533e-05
5.68822e-05
0.000142949
0.000117432
5.85372e-05
5.68927e-05
0.000142948
5.85575e-05
5.68681e-05
0.000142941
0.000117413
5.85416e-05
5.68796e-05
0.000142941
5.65603e-05
4.92889e-05
4.92888e-05
5.65723e-05
5.65712e-05
4.92902e-05
4.92901e-05
5.65845e-05
5.85499e-05
0.00011743
5.68963e-05
0.000142947
5.68861e-05
0.000142947
5.85675e-05
5.85541e-05
0.000117411
5.68843e-05
0.00014294
5.68733e-05
0.000142941
5.85722e-05
5.52862e-05
5.52745e-05
9.21254e-05
5.52937e-05
5.528e-05
2.36925e-05
2.36932e-05
2.36928e-05
2.36921e-05
9.19754e-05
5.52969e-05
5.52863e-05
5.52897e-05
5.52782e-05
2.36932e-05
2.36924e-05
5.85588e-05
5.68826e-05
0.000142949
0.000117447
5.85405e-05
5.68928e-05
0.000142948
5.65815e-05
4.92824e-05
5.65723e-05
4.92824e-05
5.85578e-05
0.000142937
5.68747e-05
0.000117415
5.85417e-05
0.000142936
5.68849e-05
5.65683e-05
4.92863e-05
4.92862e-05
5.65839e-05
5.85568e-05
0.000117445
5.68961e-05
0.000142945
5.68859e-05
0.000142946
5.85791e-05
5.65772e-05
4.92821e-05
4.92821e-05
5.65888e-05
5.85548e-05
0.000117413
0.000142934
5.68883e-05
0.000142934
5.68782e-05
5.85752e-05
5.6587e-05
4.92891e-05
5.65746e-05
4.92891e-05
5.85579e-05
0.00014295
5.68665e-05
0.000117429
5.85358e-05
0.000142949
5.68785e-05
5.6586e-05
4.92856e-05
5.65739e-05
4.92855e-05
5.85581e-05
0.00011745
5.68798e-05
0.000142947
5.68691e-05
0.000142948
5.85767e-05
5.65845e-05
4.92888e-05
4.92888e-05
5.65937e-05
5.8556e-05
0.000117427
0.000142948
5.68836e-05
0.000142948
5.68724e-05
5.85757e-05
5.65833e-05
4.92853e-05
4.92852e-05
5.65934e-05
5.52685e-05
5.52806e-05
9.21209e-05
5.52752e-05
5.52889e-05
2.36919e-05
2.36925e-05
2.36903e-05
2.36896e-05
9.19714e-05
5.52792e-05
5.52942e-05
5.52733e-05
5.52854e-05
2.36924e-05
2.36917e-05
5.85585e-05
0.000142951
5.68664e-05
0.000117449
5.85397e-05
0.00014295
5.68784e-05
5.65774e-05
4.92854e-05
5.65648e-05
4.92854e-05
5.65846e-05
4.92855e-05
5.65772e-05
4.92856e-05
5.85632e-05
0.000117447
0.000142943
5.68936e-05
0.000142944
5.68828e-05
5.85863e-05
5.85563e-05
0.000117447
0.000142947
5.68835e-05
0.000142948
5.68722e-05
5.85789e-05
5.65697e-05
4.92852e-05
4.92851e-05
5.65827e-05
5.65762e-05
4.92854e-05
4.92853e-05
5.65903e-05
2.36914e-05
2.36921e-05
2.36907e-05
2.36914e-05
9.1973e-05
5.52893e-05
5.52944e-05
5.52824e-05
5.52845e-05
2.36919e-05
2.36912e-05
2.36913e-05
2.36906e-05
2.36925e-05
2.36933e-05
2.36911e-05
2.36919e-05
5.52892e-05
5.52918e-05
9.21223e-05
5.52943e-05
5.52973e-05
2.36933e-05
2.36925e-05
2.36919e-05
2.36911e-05
9.19733e-05
5.53027e-05
5.53062e-05
5.52934e-05
5.52966e-05
5.65892e-05
4.92899e-05
5.65759e-05
4.929e-05
5.85791e-05
5.68897e-05
0.000142954
0.000117431
5.85639e-05
5.68994e-05
0.000142953
5.85852e-05
5.68779e-05
0.000142947
0.000117413
5.85689e-05
5.68885e-05
0.000142946
5.65711e-05