/*--------------------------------*- C++ -*----------------------------------*\
| =========                 |                                                 |
| \\      /  F ield         | OpenFOAM: The Open Source CFD Toolbox           |
|  \\    /   O peration     | Version:  v1912                                 |
|   \\  /    A nd           | Website:  www.openfoam.com                      |
|    \\/     M anipulation  |                                                 |
\*---------------------------------------------------------------------------*/
FoamFile
{
    version     2.0;
    format      ascii;
    class       volScalarField;
    location    "80";
    object      p;
}
// * * * * * * * * * * * * * * * * * * * * * * * * * * * * * * * * * * * * * //

dimensions      [0 2 -2 0 0 0 0];


internalField   nonuniform List<scalar> 
57062
(
0.00106361
0.00106354
0.00106354
0.0010657
0.00102686
0.00102679
0.00102679
0.00102895
0.000990113
0.000990048
0.000990048
0.000992202
0.000953371
0.000953306
0.000953306
0.00095546
0.000916632
0.000916567
0.000916567
0.000918721
0.000879893
0.000879828
0.000879829
0.000881983
0.000843154
0.00084309
0.00084309
0.000845244
0.000806416
0.000806352
0.000806352
0.000808506
0.000769678
0.000769614
0.000769614
0.000771768
0.00073294
0.000732875
0.000732875
0.000735029
0.000696199
0.000696135
0.000696135
0.000698289
0.000659456
0.000659392
0.000659392
0.000661546
0.000622711
0.000622646
0.000622646
0.000624801
0.000585963
0.000585898
0.000585898
0.000588053
0.000549208
0.000549143
0.000549143
0.000551298
0.000512448
0.000512383
0.000512383
0.000514538
0.000475691
0.000475626
0.000475626
0.000477781
0.00043894
0.000438876
0.000438876
0.00044103
0.000402193
0.000402129
0.000402129
0.000404283
0.000365445
0.000365381
0.000365381
0.000367534
0.000328696
0.000328631
0.000328631
0.000330784
0.000291945
0.00029188
0.00029188
0.000294032
0.000255194
0.000255128
0.000255128
0.000257279
0.000218438
0.000218375
0.000218375
0.000220523
0.000181678
0.000181619
0.000181619
0.000183761
0.000144909
0.000144853
0.000144852
0.000146987
0.000108122
0.000108072
0.000108071
0.000110194
7.13137e-05
7.12656e-05
7.12638e-05
7.33703e-05
3.50498e-05
3.4623e-05
3.46194e-05
3.66802e-05
4.69655e-06
3.99722e-06
3.9967e-06
3.73937e-06
0.00107059
0.00107273
0.00107273
0.00107059
0.00107273
0.00107273
0.00107273
0.00107273
0.00107059
0.00107272
0.00107273
0.00107059
0.0010657
0.00103384
0.00106354
0.00106354
0.00103598
0.00103598
0.0010657
0.00103384
0.00106354
0.00106354
0.00103598
0.00103598
0.00106354
0.00103598
0.00103598
0.0010657
0.00103384
0.00106354
0.00103598
0.00103598
0.00103384
0.00102895
0.000997099
0.00102679
0.00102679
0.000999234
0.000999234
0.00102895
0.0009971
0.00102679
0.00102679
0.000999233
0.000999234
0.00102679
0.000999234
0.000999234
0.00102895
0.000997099
0.00102679
0.000999234
0.000999234
0.000997099
0.000992202
0.000960358
0.000990048
0.000990048
0.000962492
0.000962491
0.000992202
0.000960358
0.000990048
0.000990048
0.000962492
0.000962492
0.000990048
0.000962492
0.000962492
0.000992202
0.000960357
0.000990048
0.000962491
0.000962491
0.000960357
0.000955461
0.000923618
0.000953307
0.000953306
0.000925752
0.000925752
0.00095546
0.000923618
0.000953307
0.000953307
0.000925752
0.000925752
0.000953307
0.000925752
0.000925752
0.00095546
0.000923618
0.000953306
0.000925752
0.000925752
0.000923618
0.000918721
0.000886879
0.000916567
0.000916567
0.000889013
0.000889013
0.000918721
0.00088688
0.000916567
0.000916567
0.000889013
0.000889013
0.000916567
0.000889013
0.000889013
0.000918721
0.00088688
0.000916567
0.000889014
0.000889013
0.00088688
0.000881982
0.00085014
0.000879828
0.000879828
0.000852274
0.000852274
0.000881982
0.000850141
0.000879828
0.000879829
0.000852274
0.000852274
0.000879829
0.000852274
0.000852275
0.000881983
0.000850141
0.000879829
0.000852274
0.000852275
0.000850141
0.000845243
0.000813402
0.000843089
0.00084309
0.000815536
0.000815536
0.000845244
0.000813403
0.000843089
0.00084309
0.000815536
0.000815536
0.00084309
0.000815536
0.000815536
0.000845244
0.000813402
0.00084309
0.000815536
0.000815536
0.000813403
0.000808506
0.000776665
0.000806352
0.000806352
0.000778798
0.000778798
0.000808506
0.000776665
0.000806352
0.000806352
0.000778798
0.000778798
0.000806352
0.000778799
0.000778799
0.000808506
0.000776664
0.000806352
0.000778798
0.000778798
0.000776665
0.000771768
0.000739926
0.000769614
0.000769614
0.00074206
0.00074206
0.000771768
0.000739927
0.000769614
0.000769614
0.00074206
0.00074206
0.000769614
0.00074206
0.00074206
0.000771768
0.000739926
0.000769614
0.00074206
0.00074206
0.000739926
0.00073503
0.000703186
0.000732875
0.000732875
0.00070532
0.00070532
0.000735029
0.000703187
0.000732875
0.000732875
0.00070532
0.00070532
0.000732875
0.00070532
0.00070532
0.000735029
0.000703187
0.000732875
0.00070532
0.00070532
0.000703186
0.000698289
0.000666444
0.000696135
0.000696135
0.000668578
0.000668578
0.000698289
0.000666444
0.000696135
0.000696135
0.000668577
0.000668578
0.000696135
0.000668578
0.000668578
0.000698289
0.000666444
0.000696135
0.000668578
0.000668578
0.000666444
0.000661546
0.000629699
0.000659392
0.000659392
0.000631833
0.000631833
0.000661546
0.000629699
0.000659391
0.000659392
0.000631833
0.000631833
0.000659392
0.000631833
0.000631833
0.000661546
0.000629699
0.000659392
0.000631833
0.000631833
0.000629699
0.000624801
0.000592951
0.000622646
0.000622646
0.000595086
0.000595086
0.000624801
0.000592952
0.000622646
0.000622646
0.000595085
0.000595086
0.000622647
0.000595086
0.000595086
0.000624801
0.000592951
0.000622646
0.000595085
0.000595086
0.000592951
0.000588053
0.000556198
0.000585898
0.000585898
0.000558333
0.000558332
0.000588053
0.000556198
0.000585898
0.000585898
0.000558333
0.000558333
0.000585898
0.000558332
0.000558333
0.000588053
0.000556198
0.000585898
0.000558333
0.000558333
0.000556198
0.000551299
0.000519438
0.000549143
0.000549143
0.000521573
0.000521573
0.000551298
0.000519438
0.000549143
0.000549143
0.000521573
0.000521573
0.000549143
0.000521573
0.000521573
0.000551299
0.000519438
0.000549143
0.000521573
0.000521573
0.000519438
0.000514538
0.00048268
0.000512383
0.000512383
0.000484815
0.000484815
0.000514538
0.00048268
0.000512383
0.000512383
0.000484815
0.000484815
0.000512383
0.000484815
0.000484815
0.000514538
0.00048268
0.000512383
0.000484815
0.000484815
0.00048268
0.000477781
0.000445928
0.000475626
0.000475626
0.000448063
0.000448063
0.000477781
0.000445929
0.000475626
0.000475626
0.000448062
0.000448063
0.000475626
0.000448063
0.000448063
0.000477781
0.000445928
0.000475626
0.000448063
0.000448063
0.000445928
0.000441029
0.000409181
0.000438876
0.000438876
0.000411315
0.000411315
0.00044103
0.000409182
0.000438875
0.000438876
0.000411315
0.000411315
0.000438876
0.000411316
0.000411316
0.000441029
0.000409181
0.000438876
0.000411315
0.000411316
0.000409182
0.000404283
0.000372434
0.000402129
0.000402129
0.000374568
0.000374568
0.000404283
0.000372434
0.000402129
0.000402129
0.000374568
0.000374568
0.000402129
0.000374568
0.000374568
0.000404282
0.000372434
0.000402129
0.000374568
0.000374568
0.000372434
0.000367535
0.000335685
0.000365381
0.000365381
0.000337819
0.000337819
0.000367534
0.000335685
0.000365381
0.000365381
0.000337819
0.000337819
0.000365381
0.000337819
0.000337819
0.000367535
0.000335685
0.000365381
0.000337819
0.000337819
0.000335685
0.000330784
0.000298935
0.000328631
0.000328631
0.000301069
0.000301069
0.000330784
0.000298936
0.000328631
0.000328631
0.000301068
0.000301069
0.000328631
0.000301069
0.000301069
0.000330784
0.000298935
0.000328631
0.000301069
0.000301069
0.000298935
0.000294032
0.000262185
0.00029188
0.00029188
0.000264317
0.000264317
0.000294032
0.000262185
0.00029188
0.00029188
0.000264317
0.000264317
0.000291881
0.000264317
0.000264317
0.000294033
0.000262184
0.00029188
0.000264317
0.000264317
0.000262184
0.000257279
0.000225433
0.000255128
0.000255128
0.000227565
0.000227565
0.000257279
0.000225434
0.000255128
0.000255128
0.000227565
0.000227565
0.000255128
0.000227565
0.000227565
0.000257279
0.000225433
0.000255128
0.000227565
0.000227565
0.000225433
0.000220523
0.00018868
0.000218376
0.000218375
0.00019081
0.00019081
0.000220523
0.00018868
0.000218375
0.000218376
0.00019081
0.00019081
0.000218376
0.00019081
0.00019081
0.000220523
0.00018868
0.000218375
0.00019081
0.00019081
0.00018868
0.000183761
0.000151918
0.000181619
0.000181619
0.000154047
0.000154047
0.000183761
0.000151919
0.000181618
0.000181619
0.000154047
0.000154047
0.000181619
0.000154047
0.000154047
0.000183761
0.000151918
0.000181619
0.000154047
0.000154047
0.000151918
0.000146987
0.000115144
0.000144853
0.000144852
0.000117271
0.000117271
0.000146986
0.000115144
0.000144852
0.000144853
0.00011727
0.00011727
0.000144853
0.000117271
0.000117271
0.000146987
0.000115143
0.000144852
0.00011727
0.000117271
0.000115144
0.000110194
7.83414e-05
0.000108072
0.000108072
8.04703e-05
8.04704e-05
0.000110194
7.83422e-05
0.000108072
0.000108072
8.04697e-05
8.04694e-05
0.000108072
8.04702e-05
8.04696e-05
0.000110194
7.83404e-05
0.000108072
8.04691e-05
8.04694e-05
7.83409e-05
7.33713e-05
4.15908e-05
7.12655e-05
7.12657e-05
4.37006e-05
4.37011e-05
7.33713e-05
4.15918e-05
7.12647e-05
7.12639e-05
4.3698e-05
4.36971e-05
7.12647e-05
4.36997e-05
4.36977e-05
7.33705e-05
4.15875e-05
7.12642e-05
4.36965e-05
4.36959e-05
4.15883e-05
3.66835e-05
7.482e-06
3.4625e-05
3.46253e-05
9.74062e-06
9.74043e-06
3.66839e-05
7.48172e-06
3.46224e-05
3.4621e-05
9.73983e-06
9.73584e-06
3.46212e-05
9.73844e-06
9.73372e-06
3.66789e-05
7.47774e-06
3.46186e-05
9.73595e-06
9.73561e-06
7.4764e-06
3.74322e-06
4.00068e-06
3.99965e-06
3.74356e-06
3.99639e-06
3.99543e-06
4.69643e-06
4.69424e-06
4.69358e-06
3.99479e-06
3.74066e-06
3.9947e-06
0.0010728
0.00107279
0.0010728
0.0010728
0.00105211
0.00106585
0.00106585
0.0010521
0.00106585
0.0010521
0.00105211
0.00106585
0.00106585
0.0010521
0.00106361
0.00106361
0.00106361
0.00103604
0.00103604
0.00103604
0.00103604
0.00105216
0.00106581
0.00106355
0.00105435
0.00106581
0.00105214
0.00105437
0.00106585
0.0010521
0.00105216
0.00106356
0.00106581
0.00105435
0.0010658
0.00105437
0.00105214
0.00106585
0.00106585
0.00105222
0.0010521
0.0010521
0.00101536
0.0010291
0.0010291
0.00101536
0.0010291
0.00101535
0.00101536
0.0010291
0.0010291
0.00101536
0.00102686
0.00102686
0.00102686
0.000999299
0.000999299
0.000999298
0.000999299
0.00101541
0.00102906
0.00102681
0.00101761
0.00102906
0.00101539
0.00101762
0.0010291
0.00101536
0.00101541
0.00102681
0.00102906
0.00101761
0.00102906
0.00101762
0.00101539
0.0010291
0.0010291
0.00101547
0.00101535
0.00101535
0.000978617
0.000992354
0.000992354
0.000978612
0.000992354
0.000978612
0.000978617
0.000992354
0.000992354
0.000978613
0.000990113
0.000990113
0.000990113
0.000962557
0.000962556
0.000962556
0.000962556
0.000978665
0.000992314
0.000990063
0.000980862
0.000992313
0.00097865
0.000980878
0.000992354
0.000978612
0.000978665
0.000990063
0.000992314
0.000980862
0.000992313
0.000980878
0.00097865
0.000992359
0.000992359
0.000978728
0.000978609
0.000978609
0.000941876
0.000955613
0.000955613
0.000941872
0.000955613
0.000941871
0.000941877
0.000955613
0.000955614
0.000941872
0.000953371
0.000953371
0.000953371
0.000925817
0.000925816
0.000925816
0.000925817
0.000941924
0.000955573
0.000953322
0.000944121
0.000955572
0.00094191
0.000944137
0.000955613
0.000941871
0.000941923
0.000953321
0.000955572
0.000944121
0.000955571
0.000944136
0.000941909
0.000955618
0.000955618
0.000941987
0.000941868
0.000941868
0.000905138
0.000918873
0.000918874
0.000905133
0.000918874
0.000905132
0.000905138
0.000918873
0.000918874
0.000905133
0.000916632
0.000916632
0.000916632
0.000889078
0.000889078
0.000889078
0.000889078
0.000905186
0.000918833
0.000916582
0.000907382
0.000918832
0.000905171
0.000907398
0.000918874
0.000905133
0.000905187
0.000916582
0.000918834
0.000907383
0.000918832
0.000907398
0.000905172
0.000918879
0.000918878
0.000905249
0.00090513
0.00090513
0.000868399
0.000882135
0.000882135
0.000868395
0.000882136
0.000868394
0.000868399
0.000882135
0.000882136
0.000868395
0.000879893
0.000879893
0.000879893
0.000852339
0.000852339
0.000852339
0.00085234
0.000868447
0.000882095
0.000879844
0.000870644
0.000882094
0.000868433
0.000870659
0.000882136
0.000868394
0.000868447
0.000879844
0.000882096
0.000870644
0.000882095
0.00087066
0.000868433
0.00088214
0.000882141
0.00086851
0.000868391
0.000868391
0.00083166
0.000845395
0.000845396
0.000831656
0.000845397
0.000831655
0.00083166
0.000845395
0.000845397
0.000831656
0.000843154
0.000843154
0.000843155
0.000815601
0.000815601
0.000815601
0.000815601
0.000831709
0.000845356
0.000843105
0.000833905
0.000845355
0.000831694
0.000833921
0.000845397
0.000831655
0.000831709
0.000843105
0.000845356
0.000833905
0.000845355
0.000833921
0.000831694
0.000845402
0.000845402
0.000831772
0.000831653
0.000831653
0.000794923
0.000808658
0.000808659
0.000794919
0.000808659
0.000794918
0.000794922
0.000808658
0.000808659
0.000794918
0.000806416
0.000806416
0.000806417
0.000778863
0.000778863
0.000778863
0.000778863
0.000794971
0.000808618
0.000806367
0.000797167
0.000808617
0.000794956
0.000797183
0.000808659
0.000794918
0.000794971
0.000806367
0.000808618
0.000797167
0.000808617
0.000797183
0.000794956
0.000808664
0.000808664
0.000795034
0.000794915
0.000794915
0.000758185
0.00077192
0.000771921
0.000758181
0.000771922
0.00075818
0.000758184
0.00077192
0.000771921
0.000758181
0.000769679
0.000769678
0.000769679
0.000742125
0.000742125
0.000742124
0.000742125
0.000758233
0.000771881
0.000769629
0.000760429
0.000771879
0.000758218
0.000760445
0.000771921
0.000758179
0.000758232
0.000769629
0.00077188
0.000760429
0.000771879
0.000760444
0.000758218
0.000771926
0.000771926
0.000758296
0.000758177
0.000758177
0.000721446
0.000735182
0.000735183
0.000721442
0.000735183
0.000721441
0.000721446
0.000735182
0.000735183
0.000721442
0.00073294
0.00073294
0.00073294
0.000705385
0.000705385
0.000705385
0.000705385
0.000721494
0.000735142
0.000732891
0.00072369
0.000735141
0.00072148
0.000723706
0.000735183
0.000721441
0.000721494
0.00073289
0.000735142
0.00072369
0.00073514
0.000723706
0.000721479
0.000735187
0.000735187
0.000721557
0.000721438
0.000721438
0.000684705
0.000698442
0.000698443
0.0006847
0.000698443
0.0006847
0.000684705
0.000698442
0.000698443
0.0006847
0.000696199
0.0006962
0.0006962
0.000668642
0.000668642
0.000668642
0.000668643
0.000684753
0.000698402
0.00069615
0.000686949
0.000698401
0.000684738
0.000686965
0.000698443
0.0006847
0.000684753
0.00069615
0.000698403
0.000686949
0.000698401
0.000686965
0.000684739
0.000698448
0.000698448
0.000684815
0.000684697
0.000684697
0.000647961
0.000661699
0.0006617
0.000647957
0.0006617
0.000647956
0.000647961
0.000661699
0.0006617
0.000647957
0.000659456
0.000659456
0.000659456
0.000631897
0.000631897
0.000631897
0.000631898
0.000648009
0.000661659
0.000659407
0.000650206
0.000661658
0.000647995
0.000650221
0.0006617
0.000647956
0.000648009
0.000659407
0.000661659
0.000650205
0.000661657
0.000650221
0.000647994
0.000661705
0.000661705
0.000648072
0.000647953
0.000647953
0.000611215
0.000624954
0.000624954
0.00061121
0.000624955
0.00061121
0.000611215
0.000624953
0.000624954
0.00061121
0.000622711
0.000622711
0.000622711
0.00059515
0.00059515
0.00059515
0.00059515
0.000611263
0.000624914
0.000622662
0.00061346
0.000624913
0.000611249
0.000613475
0.000624955
0.00061121
0.000611263
0.000622662
0.000624914
0.000613459
0.000624912
0.000613475
0.000611248
0.000624959
0.000624959
0.000611326
0.000611208
0.000611207
0.000574466
0.000588206
0.000588207
0.000574462
0.000588207
0.000574461
0.000574466
0.000588206
0.000588207
0.000574462
0.000585963
0.000585962
0.000585963
0.000558397
0.000558397
0.000558397
0.000558397
0.000574514
0.000588166
0.000585913
0.00057671
0.000588165
0.000574499
0.000576725
0.000588207
0.000574461
0.000574513
0.000585913
0.000588166
0.00057671
0.000588165
0.000576725
0.000574499
0.000588212
0.000588212
0.000574576
0.000574458
0.000574459
0.000537708
0.000551452
0.000551453
0.000537704
0.000551452
0.000537702
0.000537708
0.000551452
0.000551453
0.000537704
0.000549207
0.000549208
0.000549208
0.000521638
0.000521637
0.000521638
0.000521638
0.000537755
0.000551411
0.000549158
0.000539953
0.00055141
0.000537741
0.000539968
0.000551453
0.000537703
0.000537756
0.000549159
0.000551412
0.000539953
0.00055141
0.000539969
0.000537742
0.000551457
0.000551457
0.000537818
0.0005377
0.0005377
0.000500948
0.000514691
0.000514692
0.000500943
0.000514691
0.000500942
0.000500948
0.000514691
0.000514692
0.000500943
0.000512447
0.000512448
0.000512448
0.00048488
0.000484879
0.000484879
0.00048488
0.000500995
0.000514651
0.000512398
0.000503193
0.000514649
0.000500981
0.000503208
0.000514692
0.000500942
0.000500995
0.000512399
0.000514652
0.000503193
0.00051465
0.000503209
0.000500981
0.000514696
0.000514697
0.000501058
0.00050094
0.00050094
0.000464192
0.000477934
0.000477935
0.000464187
0.000477935
0.000464187
0.000464192
0.000477934
0.000477935
0.000464187
0.000475691
0.000475691
0.000475691
0.000448127
0.000448127
0.000448127
0.000448128
0.00046424
0.000477894
0.000475642
0.000466438
0.000477892
0.000464226
0.000466454
0.000477935
0.000464187
0.00046424
0.000475642
0.000477894
0.000466438
0.000477892
0.000466453
0.000464226
0.000477939
0.000477939
0.000464303
0.000464185
0.000464184
0.000427443
0.000441182
0.000441183
0.000427439
0.000441184
0.000427438
0.000427443
0.000441182
0.000441183
0.000427439
0.00043894
0.00043894
0.000438941
0.00041138
0.00041138
0.000411379
0.00041138
0.000427492
0.000441142
0.000438891
0.000429689
0.000441141
0.000427477
0.000429704
0.000441184
0.000427438
0.000427491
0.000438891
0.000441142
0.000429689
0.000441141
0.000429704
0.000427477
0.000441188
0.000441188
0.000427555
0.000427436
0.000427436
0.000390697
0.000404436
0.000404436
0.000390692
0.000404438
0.000390691
0.000390696
0.000404436
0.000404436
0.000390692
0.000402193
0.000402193
0.000402193
0.000374632
0.000374632
0.000374632
0.000374632
0.000390745
0.000404396
0.000402144
0.000392942
0.000404394
0.000390731
0.000392957
0.000404437
0.000390691
0.000390744
0.000402144
0.000404395
0.000392942
0.000404394
0.000392957
0.00039073
0.000404441
0.000404441
0.000390808
0.000390689
0.000390689
0.000353948
0.000367688
0.000367689
0.000353943
0.000367691
0.000353941
0.000353948
0.000367689
0.000367689
0.000353943
0.000365445
0.000365445
0.000365446
0.000337882
0.000337882
0.000337882
0.000337883
0.000353996
0.000367647
0.000365396
0.000356194
0.000367646
0.000353982
0.000356208
0.000367691
0.000353941
0.000353996
0.000365396
0.000367648
0.000356194
0.000367646
0.000356209
0.000353982
0.000367693
0.000367693
0.00035406
0.000353941
0.000353941
0.000317198
0.000330939
0.000330939
0.000317192
0.000330942
0.00031719
0.000317197
0.000330939
0.000330939
0.000317192
0.000328696
0.000328696
0.000328696
0.000301131
0.000301131
0.000301131
0.000301132
0.000317246
0.000330897
0.000328647
0.000319444
0.000330896
0.000317232
0.000319458
0.000330942
0.000317189
0.000317246
0.000328647
0.000330897
0.000319444
0.000330896
0.000319458
0.000317232
0.000330943
0.000330943
0.00031731
0.000317191
0.000317191
0.000280446
0.000294188
0.000294188
0.00028044
0.000294192
0.000280436
0.000280446
0.000294188
0.000294188
0.00028044
0.000291945
0.000291945
0.000291946
0.000264379
0.000264379
0.000264379
0.000264379
0.000280494
0.000294146
0.000291896
0.000282693
0.000294146
0.000280482
0.000282707
0.000294192
0.000280436
0.000280495
0.000291896
0.000294146
0.000282693
0.000294146
0.000282707
0.000280482
0.000294192
0.000294192
0.00028056
0.00028044
0.00028044
0.000243692
0.000257436
0.000257436
0.000243686
0.000257442
0.00024368
0.000243692
0.000257436
0.000257436
0.000243686
0.000255194
0.000255194
0.000255194
0.000227622
0.000227622
0.000227622
0.000227622
0.000243742
0.000257392
0.000255144
0.000245941
0.000257393
0.00024373
0.000245954
0.000257442
0.00024368
0.000243741
0.000255144
0.000257392
0.000245941
0.000257393
0.000245954
0.00024373
0.000257439
0.000257439
0.000243809
0.000243688
0.000243688
0.000206936
0.000220683
0.000220682
0.000206931
0.000220691
0.000206922
0.000206936
0.000220683
0.000220682
0.000206931
0.000218438
0.000218438
0.000218438
0.000190861
0.00019086
0.000190861
0.00019086
0.000206986
0.000220636
0.000218391
0.000209188
0.000220639
0.000206978
0.0002092
0.000220692
0.000206921
0.000206986
0.000218391
0.000220636
0.000209188
0.000220639
0.0002092
0.000206978
0.000220683
0.000220683
0.000207057
0.000206935
0.000206935
0.000170174
0.000183925
0.000183925
0.000170167
0.000183939
0.000170153
0.000170173
0.000183925
0.000183925
0.000170167
0.000181678
0.000181678
0.000181678
0.000154089
0.000154089
0.000154089
0.000154089
0.000170223
0.000183875
0.000181634
0.00017243
0.000183882
0.000170221
0.000172439
0.000183939
0.000170153
0.000170223
0.000181634
0.000183875
0.00017243
0.000183882
0.000172439
0.000170221
0.000183923
0.000183923
0.0001703
0.000170176
0.000170176
0.000133399
0.000147159
0.000147158
0.000133396
0.000147182
0.000133369
0.000133399
0.000147158
0.000147158
0.000133396
0.000144909
0.000144909
0.000144909
0.000117299
0.000117299
0.000117299
0.000117299
0.000133446
0.000147099
0.000144868
0.000135661
0.000147117
0.000133456
0.000135668
0.000147181
0.000133368
0.000133446
0.000144868
0.000147099
0.000135661
0.000147116
0.000135668
0.000133455
0.00014715
0.00014715
0.000133533
0.000133408
0.000133407
9.6604e-05
0.00011037
0.000110375
9.66069e-05
0.000110414
9.65563e-05
9.66032e-05
0.00011037
0.000110374
9.66063e-05
0.000108123
0.000108122
0.000108122
8.04765e-05
8.04755e-05
8.04756e-05
8.04752e-05
9.66411e-05
0.000110304
0.000108086
9.88744e-05
0.000110338
9.66765e-05
9.88747e-05
0.000110414
9.65541e-05
9.66403e-05
0.000108085
0.000110303
9.88739e-05
0.000110338
9.88741e-05
9.6675e-05
0.000110356
0.000110355
9.67465e-05
9.66252e-05
9.66255e-05
5.97646e-05
7.35496e-05
7.35598e-05
5.97793e-05
7.36394e-05
5.96633e-05
5.97625e-05
7.35487e-05
7.35587e-05
5.97774e-05
7.13129e-05
7.13124e-05
7.13125e-05
4.38579e-05
4.3859e-05
4.38558e-05
4.38558e-05
5.97935e-05
7.34644e-05
7.12822e-05
6.20621e-05
7.35397e-05
5.98687e-05
6.20738e-05
7.36351e-05
5.96657e-05
5.97922e-05
7.1281e-05
7.3463e-05
6.20599e-05
7.35385e-05
6.20724e-05
5.98662e-05
7.35241e-05
7.35242e-05
5.99306e-05
5.98061e-05
5.9806e-05
2.24535e-05
3.64503e-05
3.65271e-05
2.20012e-05
3.6624e-05
2.1613e-05
2.24398e-05
3.64433e-05
3.65206e-05
2.19909e-05
3.50506e-05
3.5047e-05
3.50468e-05
1.09877e-05
1.09872e-05
1.09845e-05
1.09839e-05
2.28442e-05
3.63618e-05
3.48127e-05
2.5768e-05
3.66519e-05
2.23834e-05
2.60619e-05
3.66097e-05
2.16156e-05
2.28435e-05
3.48098e-05
3.63586e-05
2.57662e-05
3.66506e-05
2.60592e-05
2.2384e-05
3.6378e-05
3.63772e-05
2.35961e-05
2.20182e-05
2.20183e-05
-1.63795e-06
-9.19552e-07
2.95005e-06
-5.99032e-06
-1.29546e-06
-6.81558e-06
-1.64919e-06
-9.35744e-07
2.91578e-06
-5.99334e-06
1.12819e-06
5.88033e-06
5.87843e-06
6.63009e-07
6.50426e-06
8.06386e-07
8.05518e-07
-1.1566e-06
-3.04466e-07
4.66417e-06
-1.14606e-07
3.23992e-06
1.81149e-07
5.59637e-07
-1.32609e-06
-6.81043e-06
-1.15422e-06
4.66377e-06
-3.09144e-07
-1.16279e-07
3.24028e-06
5.59712e-07
1.86782e-07
-1.0195e-06
-1.02273e-06
-1.37179e-06
-1.20885e-06
-1.19426e-06
0.00107048
0.00107048
0.00107048
0.00107048
0.00107048
0.00107048
0.00107048
0.00108423
0.00107048
0.00107052
0.00107274
0.00107053
0.00108191
0.00107052
0.00107274
0.00108418
0.00107053
0.00107048
0.00108423
0.00108407
0.00107048
0.00107048
0.00108423
0.00108423
0.00107048
0.00108423
0.00107048
0.00107048
0.00107052
0.00107274
0.00107053
0.00107048
0.00107048
0.00107274
0.00107052
0.00107053
0.00108418
0.00108192
0.00107052
0.00107274
0.00108418
0.00108193
0.00107053
0.00108423
0.00107048
0.00108423
0.00107048
0.00108418
0.00108191
0.00107274
0.00107052
0.00108193
0.00108418
0.00107053
0.00108423
0.00107048
0.00108423
0.00107048
0.00107048
0.00107048
0.00107048
0.00107048
0.00107274
0.00107052
0.00107053
0.00108191
0.00107274
0.00107052
0.00108418
0.00107053
0.00107048
0.00107048
0.00107048
0.00108423
0.00107048
0.00108407
0.00107048
0.00107048
0.00108423
0.00108423
0.00107048
0.00108423
0.00107048
0.00108423
0.00106585
0.0010521
0.00106585
0.0010521
0.00106586
0.00106586
0.00105222
0.0010521
0.0010521
0.00103373
0.00104747
0.00103373
0.00104747
0.00104732
0.00103373
0.00103373
0.00104748
0.00104748
0.00105211
0.00106585
0.00106585
0.0010521
0.00105216
0.00106581
0.00106356
0.00105436
0.00106581
0.00105214
0.00105437
0.00105216
0.00106581
0.00106356
0.00105435
0.00106581
0.00105214
0.00105437
0.00104747
0.00103373
0.00104747
0.00103373
0.00104747
0.00103373
0.00104747
0.00103373
0.00104743
0.00104517
0.00103377
0.00103599
0.00104743
0.00104518
0.00103378
0.00104743
0.00104517
0.00103377
0.00103599
0.00104743
0.00104518
0.00103378
0.00106585
0.00106585
0.00105222
0.0010521
0.0010521
0.00106585
0.0010521
0.00103373
0.00104747
0.00104732
0.00103373
0.00103373
0.00104748
0.00104748
0.00103373
0.00104747
0.00105216
0.00106581
0.00106355
0.00105435
0.00106581
0.00105214
0.00105437
0.00105211
0.00106585
0.00106585
0.0010521
0.00105216
0.00106356
0.00106581
0.00105435
0.00106581
0.00105437
0.00105214
0.00104747
0.00103373
0.00104747
0.00103373
0.00104743
0.00104517
0.00103377
0.00103599
0.00104743
0.00104518
0.00103378
0.00104747
0.00103373
0.00104747
0.00103373
0.00104743
0.00104517
0.00103599
0.00103377
0.00104518
0.00104743
0.00103378
0.00105211
0.00106585
0.00106585
0.0010521
0.00105216
0.00106356
0.00106581
0.00105435
0.00106581
0.00105437
0.00105214
0.00105211
0.00106585
0.00106585
0.0010521
0.00104743
0.00104517
0.00103377
0.00103599
0.00104743
0.00104518
0.00103378
0.00104747
0.00103373
0.00104747
0.00103373
0.00104743
0.00104517
0.00103599
0.00103377
0.00104518
0.00104743
0.00103378
0.00104747
0.00103373
0.00104747
0.00103373
0.00106585
0.00106586
0.00105222
0.0010521
0.0010521
0.00106585
0.0010521
0.00103373
0.00104747
0.00104732
0.00103373
0.00103373
0.00104748
0.00104748
0.00103373
0.00104747
0.00105216
0.00106356
0.00106581
0.00105435
0.0010658
0.00105437
0.00105214
0.00105211
0.00106585
0.00106585
0.0010521
0.00105211
0.00106585
0.00106585
0.0010521
0.00104743
0.00104517
0.00103599
0.00103377
0.00104518
0.00104743
0.00103378
0.00104743
0.00104517
0.00103599
0.00103377
0.00104518
0.00104743
0.00103378
0.00104747
0.00103373
0.00104747
0.00103373
0.00104747
0.00103373
0.00104747
0.00103373
0.00106585
0.0010521
0.00106585
0.0010521
0.00104732
0.00103373
0.00103373
0.00104748
0.00104748
0.00103373
0.00104747
0.00103373
0.00104747
0.0010291
0.00101536
0.0010291
0.00101536
0.0010291
0.0010291
0.00101547
0.00101535
0.00101535
0.000996983
0.00101073
0.000996983
0.00101073
0.00101057
0.00099698
0.00099698
0.00101073
0.00101073
0.00101536
0.0010291
0.0010291
0.00101536
0.00101541
0.00102906
0.00102681
0.00101761
0.00102906
0.00101539
0.00101762
0.00101541
0.00102906
0.00102681
0.00101761
0.00102906
0.00101539
0.00101762
0.00101073
0.000996983
0.00101073
0.000996988
0.00101073
0.000996983
0.00101073
0.000996988
0.00101069
0.00100842
0.000997022
0.000999249
0.00101069
0.00100843
0.000997036
0.00101069
0.00100842
0.000997021
0.000999249
0.00101069
0.00100844
0.000997036
0.0010291
0.0010291
0.00101547
0.00101535
0.00101535
0.0010291
0.00101535
0.000996983
0.00101073
0.00101057
0.00099698
0.00099698
0.00101073
0.00101073
0.000996983
0.00101073
0.00101541
0.00102906
0.00102681
0.00101761
0.00102906
0.00101539
0.00101762
0.00101536
0.0010291
0.0010291
0.00101536
0.00101541
0.00102681
0.00102906
0.00101761
0.00102906
0.00101762
0.00101539
0.00101073
0.000996983
0.00101073
0.000996987
0.00101069
0.00100842
0.000997022
0.000999249
0.00101069
0.00100844
0.000997037
0.00101073
0.000996984
0.00101073
0.000996987
0.00101069
0.00100842
0.000999249
0.000997022
0.00100844
0.00101069
0.000997036
0.00101536
0.0010291
0.0010291
0.00101536
0.00101541
0.00102681
0.00102906
0.00101761
0.00102906
0.00101762
0.00101539
0.00101536
0.0010291
0.0010291
0.00101536
0.00101069
0.00100842
0.000997022
0.000999249
0.00101069
0.00100843
0.000997036
0.00101073
0.000996984
0.00101073
0.000996988
0.00101069
0.00100842
0.000999249
0.000997021
0.00100844
0.00101069
0.000997036
0.00101073
0.000996983
0.00101073
0.000996988
0.0010291
0.0010291
0.00101547
0.00101535
0.00101535
0.0010291
0.00101535
0.000996983
0.00101073
0.00101057
0.00099698
0.00099698
0.00101073
0.00101073
0.000996983
0.00101073
0.00101541
0.00102681
0.00102906
0.00101761
0.00102906
0.00101762
0.00101539
0.00101536
0.0010291
0.0010291
0.00101536
0.00101536
0.0010291
0.0010291
0.00101536
0.00101068
0.00100842
0.000999249
0.000997022
0.00100843
0.00101069
0.000997036
0.00101068
0.00100842
0.000999249
0.000997021
0.00100843
0.00101069
0.000997036
0.00101073
0.000996983
0.00101073
0.000996987
0.00101073
0.000996983
0.00101073
0.000996987
0.0010291
0.00101536
0.0010291
0.00101536
0.00101057
0.00099698
0.00099698
0.00101073
0.00101073
0.000996983
0.00101073
0.000996983
0.00101073
0.000992354
0.000978612
0.000992354
0.000978612
0.00099236
0.00099236
0.000978728
0.000978609
0.000978609
0.000960242
0.000973983
0.000960242
0.000973984
0.000973831
0.000960239
0.000960239
0.000973989
0.000973989
0.000978617
0.000992353
0.000992354
0.000978612
0.000978665
0.000992314
0.000990063
0.000980863
0.000992313
0.000978651
0.000980878
0.000978665
0.000992314
0.000990063
0.000980862
0.000992313
0.00097865
0.000980878
0.000973983
0.000960242
0.000973983
0.000960246
0.000973983
0.000960242
0.000973982
0.000960246
0.000973942
0.000971677
0.00096028
0.000962507
0.000973944
0.000971692
0.000960295
0.000973942
0.000971677
0.00096028
0.000962507
0.000973943
0.000971693
0.000960294
0.000992359
0.000992359
0.000978728
0.000978609
0.000978609
0.000992355
0.000978612
0.000960241
0.000973983
0.000973831
0.000960238
0.000960238
0.000973988
0.000973988
0.000960241
0.000973984
0.000978665
0.000992314
0.000990063
0.000980862
0.000992313
0.000978651
0.000980878
0.000978616