/*--------------------------------*- C++ -*----------------------------------*\
| =========                 |                                                 |
| \\      /  F ield         | OpenFOAM: The Open Source CFD Toolbox           |
|  \\    /   O peration     | Version:  v1912                                 |
|   \\  /    A nd           | Website:  www.openfoam.com                      |
|    \\/     M anipulation  |                                                 |
\*---------------------------------------------------------------------------*/
FoamFile
{
    version     2.0;
    format      ascii;
    class       surfaceScalarField;
    location    "80";
    object      phi;
}
// * * * * * * * * * * * * * * * * * * * * * * * * * * * * * * * * * * * * * //

dimensions      [0 3 -1 0 0 0 0];
oriented        oriented;


internalField   nonuniform List<scalar> 
165494
(
3.87639e-09
4.41578e-09
-0.00113229
-4.22749e-09
-4.27261e-09
0.00113229
-0.00112636
-1.30527e-06
-4.33115e-09
8.68778e-09
0.00112636
-3.20035e-07
1.31232e-06
3.15939e-07
9.96488e-07
-3.22876e-07
-9.9495e-07
3.13931e-07
-0.001126
-1.29972e-06
-4.3559e-09
8.74451e-09
0.001126
-3.20037e-07
1.30662e-06
3.15919e-07
9.96199e-07
-3.25581e-07
-9.94848e-07
3.16693e-07
-0.000274949
1.33468e-06
1.29986e-06
-2.67169e-07
-2.72544e-07
0.000272854
4.07415e-09
4.4424e-09
-0.00113229
-4.26291e-09
-4.26245e-09
0.00113229
-0.00112636
-1.30526e-06
-4.54729e-09
8.78081e-09
0.00112636
-3.20028e-07
1.3123e-06
3.15903e-07
9.96532e-07
-3.22787e-07
-9.94851e-07
3.13971e-07
-0.001126
-1.29967e-06
-4.37233e-09
8.86485e-09
0.001126
-3.20019e-07
1.30663e-06
3.15916e-07
9.96263e-07
-3.25533e-07
-9.94753e-07
3.16717e-07
-0.000274949
1.33468e-06
1.29983e-06
-2.67151e-07
-2.72535e-07
0.000272854
4.26262e-09
4.61345e-09
-0.00113229
-4.36909e-09
-4.38451e-09
0.00113229
-0.00112636
-1.30523e-06
-4.69989e-09
8.76402e-09
0.00112636
-3.19984e-07
1.3123e-06
3.1591e-07
9.96566e-07
-3.22709e-07
-9.9478e-07
3.14009e-07
-0.001126
-1.29965e-06
-4.62369e-09
8.75706e-09
0.001126
-3.1996e-07
1.30664e-06
3.15944e-07
9.96337e-07
-3.25445e-07
-9.94647e-07
3.16762e-07
-0.000274949
1.33468e-06
1.29983e-06
-2.67151e-07
-2.72535e-07
0.000272855
4.25501e-09
4.54018e-09
-0.00113229
-4.3177e-09
-4.35062e-09
0.00113229
-0.00112635
-1.30524e-06
-4.7882e-09
8.84426e-09
0.00112635
-3.19994e-07
1.31227e-06
3.15867e-07
9.96585e-07
-3.22644e-07
-9.94735e-07
3.14044e-07
-0.001126
-1.29966e-06
-4.74849e-09
8.84428e-09
0.001126
-3.19957e-07
1.30661e-06
3.1591e-07
9.96363e-07
-3.25388e-07
-9.94606e-07
3.16793e-07
-0.000274949
1.33463e-06
1.29978e-06
-2.67087e-07
-2.72482e-07
0.000272854
4.25223e-09
4.58435e-09
-0.00113229
-4.3212e-09
-4.34896e-09
0.00113229
-0.00112635
-1.30521e-06
-4.8345e-09
8.72097e-09
0.00112635
-3.19946e-07
1.3123e-06
3.1592e-07
9.96597e-07
-3.22571e-07
-9.94694e-07
3.14085e-07
-0.001126
-1.29967e-06
-4.85343e-09
8.88284e-09
0.001126
-3.19968e-07
1.3066e-06
3.15887e-07
9.96402e-07
-3.25327e-07
-9.94555e-07
3.16834e-07
-0.000274949
1.33466e-06
1.29982e-06
-2.67124e-07
-2.72506e-07
0.000272854
4.30498e-09
4.60849e-09
-0.00113229
-4.38917e-09
-4.39015e-09
0.00113229
-0.00112635
-1.30521e-06
-4.49162e-09
8.85779e-09
0.00112635
-3.19976e-07
1.31227e-06
3.15852e-07
9.96496e-07
-3.2267e-07
-9.94798e-07
3.13982e-07
-0.001126
-1.29969e-06
-4.71935e-09
8.89923e-09
0.001126
-3.1998e-07
1.30658e-06
3.15872e-07
9.96368e-07
-3.25358e-07
-9.94601e-07
3.16804e-07
-0.000274949
1.33464e-06
1.29981e-06
-2.67116e-07
-2.72488e-07
0.000272854
4.33945e-09
4.68335e-09
-0.00113229
-4.4237e-09
-4.43852e-09
0.00113229
-0.00112635
-1.30518e-06
-4.83416e-09
8.68709e-09
0.00112635
-3.19916e-07
1.31233e-06
3.1592e-07
9.96599e-07
-3.226e-07
-9.94713e-07
3.14059e-07
-0.00112599
-1.29965e-06
-4.7395e-09
8.83562e-09
0.00112599
-3.19948e-07
1.30661e-06
3.15889e-07
9.964e-07
-3.25341e-07
-9.94574e-07
3.16822e-07
-0.000274948
1.3346e-06
1.29978e-06
-2.67087e-07
-2.72448e-07
0.000272853
4.49508e-09
4.89996e-09
-0.00113228
-4.54861e-09
-4.52807e-09
0.00113228
-0.00112635
-1.30523e-06
-4.90185e-09
8.72972e-09
0.00112635
-3.19988e-07
1.31228e-06
3.15861e-07
9.96654e-07
-3.22534e-07
-9.94663e-07
3.14133e-07
-0.00112599
-1.29964e-06
-4.781e-09
8.77051e-09
0.00112599
-3.19942e-07
1.30663e-06
3.15906e-07
9.9643e-07
-3.25299e-07
-9.94552e-07
3.16864e-07
-0.000274948
1.33464e-06
1.29981e-06
-2.6711e-07
-2.72484e-07
0.000272853
4.34064e-09
4.86502e-09
-0.00113228
-4.53809e-09
-4.41629e-09
0.00113228
-0.00112635
-1.30524e-06
-4.75957e-09
8.80766e-09
0.00112635
-3.19998e-07
1.31226e-06
3.15834e-07
9.96645e-07
-3.22561e-07
-9.94679e-07
3.14108e-07
-0.00112599
-1.29964e-06
-4.84613e-09
8.6649e-09
0.00112599
-3.19938e-07
1.30666e-06
3.15932e-07
9.96446e-07
-3.25296e-07
-9.94563e-07
3.16881e-07
-0.000274947
1.33468e-06
1.29984e-06
-2.67127e-07
-2.7252e-07
0.000272852
4.20929e-09
4.66787e-09
-0.00113228
-4.4016e-09
-4.29327e-09
0.00113228
-0.00112635
-1.30528e-06
-4.74485e-09
8.89446e-09
0.00112635
-3.20041e-07
1.31225e-06
3.15826e-07
9.96667e-07
-3.2257e-07
-9.94695e-07
3.14127e-07
-0.00112599
-1.29967e-06
-4.8637e-09
8.7331e-09
0.00112599
-3.19948e-07
1.30664e-06
3.15928e-07
9.96458e-07
-3.25315e-07
-9.94585e-07
3.16889e-07
-0.000274947
1.33471e-06
1.29989e-06
-2.67168e-07
-2.72548e-07
0.000272852
4.18221e-09
4.4969e-09
-0.00113228
-4.31419e-09
-4.28241e-09
0.00113228
-0.00112634
-1.30533e-06
-4.60665e-09
8.97074e-09
0.00112634
-3.20094e-07
1.31224e-06
3.15806e-07
9.96599e-07
-3.22645e-07
-9.94781e-07
3.14065e-07
-0.00112599
-1.29973e-06
-4.72589e-09
8.91917e-09
0.00112599
-3.20055e-07
1.30661e-06
3.15854e-07
9.96414e-07
-3.25365e-07
-9.94632e-07
3.16847e-07
-0.000274946
1.33471e-06
1.2999e-06
-2.67185e-07
-2.72547e-07
0.000272851
4.19233e-09
4.52765e-09
-0.00113228
-4.36783e-09
-4.37054e-09
0.00113228
-0.00112634
-1.30533e-06
-4.54653e-09
8.87191e-09
0.00112634
-3.20084e-07
1.31228e-06
3.1586e-07
9.96573e-07
-3.22698e-07
-9.9484e-07
3.14035e-07
-0.00112599
-1.29976e-06
-4.42527e-09
8.92192e-09
0.00112599
-3.20062e-07
1.30663e-06
3.15896e-07
9.96324e-07
-3.25476e-07
-9.94767e-07
3.16763e-07
-0.000274946
1.33476e-06
1.29993e-06
-2.67228e-07
-2.72608e-07
0.000272851
4.13704e-09
4.62751e-09
-0.00113228
-4.43332e-09
-4.35083e-09
0.00113228
-0.00112634
-1.30532e-06
-4.39303e-09
8.85706e-09
0.00112634
-3.20075e-07
1.3123e-06
3.15879e-07
9.96524e-07
-3.22739e-07
-9.94877e-07
3.13953e-07
-0.00112599
-1.29974e-06
-4.54219e-09
8.81629e-09
0.00112599
-3.20042e-07
1.30665e-06
3.15917e-07
9.96362e-07
-3.25424e-07
-9.94709e-07
3.16768e-07
-0.000274945
1.33477e-06
1.29996e-06
-2.67243e-07
-2.72612e-07
0.00027285
3.84167e-09
4.2915e-09
-0.00113228
-4.26876e-09
-4.17718e-09
0.00113228
-0.00112634
-1.30539e-06
-3.82983e-09
8.98001e-09
0.00112634
-3.20161e-07
1.31225e-06
3.15778e-07
9.96316e-07
-3.22937e-07
-9.95092e-07
3.13729e-07
-0.00112599
-1.2998e-06
-4.099e-09
8.91751e-09
0.00112599
-3.20113e-07
1.3066e-06
3.15833e-07
9.96213e-07
-3.25578e-07
-9.94865e-07
3.16588e-07
-0.000274945
1.33482e-06
1.30005e-06
-2.67333e-07
-2.72647e-07
0.00027285
2.82894e-09
3.19297e-09
-0.00113228
-3.67903e-09
-3.64118e-09
0.00113229
-0.00112635
-1.30566e-06
-2.9659e-09
9.2837e-09
0.00112635
-3.20467e-07
1.31205e-06
3.15562e-07
9.96065e-07
-3.23264e-07
-9.95406e-07
3.13438e-07
-0.00112599
-1.30005e-06
-3.23933e-09
9.2047e-09
0.00112599
-3.20376e-07
1.30642e-06
3.15652e-07
9.95922e-07
-3.2591e-07
-9.95204e-07
3.16275e-07
-0.000274946
1.33511e-06
1.30029e-06
-2.67629e-07
-2.73011e-07
0.000272851
2.87874e-09
3.03381e-09
-0.00113229
-3.44886e-09
-3.64546e-09
0.00113229
-0.00112635
-1.3056e-06
-3.82592e-09
9.08206e-09
0.00112635
-3.2035e-07
1.31208e-06
3.15623e-07
9.96143e-07
-3.23084e-07
-9.95278e-07
3.13512e-07
-0.001126
-1.30007e-06
-3.32971e-09
9.35984e-09
0.001126
-3.2038e-07
1.30637e-06
3.15587e-07
9.95859e-07
-3.25907e-07
-9.9522e-07
3.16179e-07
-0.000274947
1.33507e-06
1.30015e-06
-2.67513e-07
-2.72978e-07
0.000272853
3.8969e-09
4.08713e-09
-0.00113229
-4.07898e-09
-4.19018e-09
0.00113229
-0.00112636
-1.30535e-06
-4.6732e-09
8.82695e-09
0.00112636
-3.2008e-07
1.31227e-06
3.15792e-07
9.96382e-07
-3.2263e-07
-9.94871e-07
3.13667e-07
-0.001126
-1.29983e-06
-4.39106e-09
9.01369e-09
0.001126
-3.20107e-07
1.30656e-06
3.15775e-07
9.96101e-07
-3.25438e-07
-9.94821e-07
3.16355e-07
-0.000274949
1.33482e-06
1.29991e-06
-2.67195e-07
-2.72657e-07
0.000272854
4.69817e-09
4.87246e-09
-0.00113229
-4.4901e-09
-4.59144e-09
0.00113229
-0.00112636
-1.30512e-06
-5.21218e-09
8.59115e-09
0.00112636
-3.19844e-07
1.31236e-06
3.15883e-07
9.96465e-07
-3.22118e-07
-9.94449e-07
3.13661e-07
-0.001126
-1.29957e-06
-5.09093e-09
8.74383e-09
0.001126
-3.19845e-07
1.30667e-06
3.1588e-07
9.96231e-07
-3.24893e-07
-9.94356e-07
3.16388e-07
-0.00027495
1.33452e-06
1.29966e-06
-2.66832e-07
-2.72234e-07
0.000272855
4.7334e-09
5.06995e-09
-0.00113229
-4.67809e-09
-4.65307e-09
0.00113229
-0.00112636
-1.30498e-06
-5.00543e-09
8.47416e-09
0.00112636
-3.19659e-07
1.31231e-06
3.15802e-07
9.96186e-07
-3.21782e-07
-9.94228e-07
3.13264e-07
-0.001126
-1.29942e-06
-5.11218e-09
8.48121e-09
0.001126
-3.19637e-07
1.30664e-06
3.15834e-07
9.96015e-07
-3.24477e-07
-9.94069e-07
3.16066e-07
-0.00027495
1.33445e-06
1.29963e-06
-2.66709e-07
-2.72077e-07
0.000272854
4.09732e-09
4.55273e-09
-0.00113229
-4.46291e-09
-4.36235e-09
0.00113229
-0.00112636
-1.30496e-06
-4.39945e-09
8.68745e-09
0.00112636
-3.19601e-07
1.31205e-06
3.15467e-07
9.95645e-07
-3.21329e-07
-9.93988e-07
3.1255e-07
-0.001126
-1.29937e-06
-4.567e-09
8.6326e-09
0.001126
-3.19559e-07
1.3064e-06
3.15509e-07
9.95489e-07
-3.24015e-07
-9.93803e-07
3.15355e-07
-0.00027495
1.33439e-06
1.2996e-06
-2.66547e-07
-2.71892e-07
0.000272854
3.48941e-09
3.90691e-09
-0.00113229
-4.17981e-09
-4.12508e-09
0.00113229
-0.00112636
-1.30481e-06
-3.88875e-09
8.83202e-09
0.00112636
-3.19332e-07
1.31175e-06
3.15067e-07
9.94912e-07
-3.20472e-07
-9.93422e-07
3.11516e-07
-0.001126
-1.29924e-06
-3.98744e-09
8.80995e-09
0.001126
-3.19306e-07
1.30609e-06
3.151e-07
9.94745e-07
-3.23173e-07
-9.93252e-07
3.14307e-07
-0.00027495
1.33424e-06
1.29941e-06
-2.66149e-07
-2.71523e-07
0.000272854
2.69767e-09
3.04559e-09
-0.00113229
-3.86859e-09
-3.85119e-09
0.00113229
-0.00112636
-1.30449e-06
-3.08105e-09
9.00485e-09
0.00112636
-3.18831e-07
1.31133e-06
3.14449e-07
9.9371e-07
-3.1902e-07
-9.92445e-07
3.09834e-07
-0.001126
-1.29892e-06
-3.14262e-09
8.99097e-09
0.001126
-3.18757e-07
1.30568e-06
3.14496e-07
9.93516e-07
-3.21733e-07
-9.92299e-07
3.12612e-07
-0.00027495
1.33395e-06
1.29913e-06
-2.65505e-07
-2.70885e-07
0.000272853
1.20459e-09
1.60739e-09
-0.00113229
-3.4294e-09
-3.40101e-09
0.00113229
-0.00112636
-1.30402e-06
-1.63134e-09
9.41261e-09
0.00112636
-3.18042e-07
1.31063e-06
3.13412e-07
9.91699e-07
-3.16674e-07
-9.9083e-07
3.07111e-07
-0.001126
-1.29845e-06
-1.69623e-09
9.42134e-09
0.001126
-3.17983e-07
1.30498e-06
3.13439e-07
9.91528e-07
-3.19386e-07
-9.90673e-07
3.09887e-07
-0.000274951
1.33345e-06
1.29862e-06
-2.64437e-07
-2.69806e-07
0.000272853
-9.37873e-10
-7.06972e-10
-0.00113229
-2.91761e-09
-2.86618e-09
0.00113229
-0.00112636
-1.3032e-06
7.06633e-10
1.02069e-08
0.00112635
-3.16609e-07
1.30943e-06
3.11556e-07
9.88471e-07
-3.12954e-07
-9.88172e-07
3.02745e-07
-0.001126
-1.29761e-06
6.25519e-10
1.01512e-08
0.001126
-3.16515e-07
1.30379e-06
3.11632e-07
9.88288e-07
-3.15649e-07
-9.88015e-07
3.05536e-07
-0.000274952
1.33261e-06
1.29778e-06
-2.62717e-07
-2.68095e-07
0.000272852
-4.03798e-09
-3.80092e-09
-0.00113228
-2.28146e-09
-2.26917e-09
0.0011323
-0.00112636
-1.30172e-06
3.72171e-09
1.17416e-08
0.00112635
-3.14036e-07
1.30735e-06
3.08327e-07
9.83036e-07
-3.06939e-07
-9.83841e-07
2.95519e-07
-0.001126
-1.29618e-06
3.73623e-09
1.18229e-08
0.001126
-3.14031e-07
1.30168e-06
3.08283e-07
9.82843e-07
-3.09665e-07
-9.83688e-07
2.98285e-07
-0.000274954
1.33117e-06
1.29633e-06
-2.59901e-07
-2.65283e-07
0.000272851
-9.24677e-09
-8.99488e-09
-0.00113228
-1.79022e-09
-1.76148e-09
0.0011323
-0.00112636
-1.29896e-06
8.91847e-09
1.46131e-08
0.00112636
-3.09269e-07
1.30338e-06
3.02157e-07
9.74053e-07
-2.97133e-07
-9.76701e-07
2.83523e-07
-0.001126
-1.29339e-06
8.86123e-09
1.46119e-08
0.001126
-3.09202e-07
1.29774e-06
3.02169e-07
9.73863e-07
-2.99834e-07
-9.76549e-07
2.86325e-07
-0.000274956
1.32839e-06
1.29354e-06
-2.55133e-07
-2.60515e-07
0.00027285
-1.77503e-08
-1.74914e-08
-0.00113228
-1.95429e-09
-1.91221e-09
0.00113232
-0.00112636
-1.29335e-06
1.74297e-08
1.96262e-08
0.00112636
-3.00256e-07
1.29539e-06
2.90635e-07
9.59097e-07
-2.80798e-07
-9.65068e-07
2.63472e-07
-0.00112601
-1.28778e-06
1.73641e-08
1.96362e-08
0.001126
-3.00241e-07
1.28975e-06
2.90675e-07
9.589e-07
-2.83524e-07
-9.64871e-07
2.66281e-07
-0.00027496
1.3228e-06
1.28795e-06
-2.47185e-07
-2.5255e-07
0.000272849
-1.53927e-08
-1.50874e-08
-0.00113228
-9.56462e-09
-1.46713e-08
0.00113233
-0.00112637
-1.28078e-06
2.03945e-08
1.75917e-08
0.00112638
-2.82691e-07
1.28067e-06
2.73933e-07
9.38808e-07
-2.5559e-07
-9.48424e-07
2.31606e-07
-0.00112603
-1.2724e-06
1.49265e-08
2.29403e-08
0.00112603
-2.82603e-07
1.27224e-06
2.71117e-07
9.35894e-07
-2.55495e-07
-9.45436e-07
2.34473e-07
-0.000274969
1.31295e-06
1.27532e-06
-2.30561e-07
-2.35856e-07
0.000272847
8.2674e-07
8.3424e-07
-0.00113215
-7.36379e-07
-7.25832e-07
0.00113195
-0.00112667
-1.17178e-06
-8.28224e-07
-3.59448e-07
0.00112702
-1.83056e-07
1.4228e-06
3.47927e-07
1.07259e-06
-1.27989e-07
-8.32675e-07
3.05395e-07
-0.00112633
-1.16333e-06
-8.39407e-07
-3.70709e-07
0.0011267
-1.82922e-07
1.4173e-06
3.50896e-07
1.06959e-06
-1.33661e-07
-8.29622e-07
3.08261e-07
-0.00027504
1.20683e-06
1.16353e-06
-1.37576e-07
-1.40111e-07
0.000272948
5.26357e-06
5.25783e-06
-0.00111835
-1.10296e-05
-1.09288e-05
0.000271335
0.000275055
0.000273935
0.000273936
4.2347e-06
6.60041e-06
6.92208e-06
4.23932e-06
6.60121e-06
6.92558e-06
-0.00027846
5.25578e-06
-5.25472e-06
5.72947e-06
-3.3059e-06
0.000276035
-0.000278436
-5.2566e-06
5.26128e-06
-3.31395e-06
5.72656e-06
0.000276019
-0.000275723
-5.25265e-06
-5.26403e-06
5.82783e-06
5.81559e-06
0.000274596
-1.34709e-06
-1.30956e-06
0.000274966
-0.00027286
2.71491e-07
2.79423e-07
0.00112554
-1.00209e-08
9.19325e-09
-1.34029e-06
3.21377e-07
-3.25856e-07
-9.95084e-07
3.1371e-07
-3.22934e-07
9.96172e-07
1.35281e-06
0.001126
-3.73146e-09
-0.001126
9.29036e-09
-1.34591e-06
3.24315e-07
-3.28667e-07
-1.00075e-06
3.16603e-07
-3.25883e-07
1.00214e-06
-1.31232e-06
0.000274996
-0.000272882
2.74349e-07
2.76636e-07
0.00112663
1.78951e-09
3.42828e-09
-1.3026e-06
3.18914e-07
-3.2291e-07
-9.97763e-07
3.16777e-07
-3.25752e-07
9.99317e-07
1.34727e-06
0.00112565
-4.05551e-09
9.07373e-09
-1.34024e-06
3.24376e-07
-3.28605e-07
-9.97907e-07
3.16647e-07
-3.25723e-07
9.99089e-07
-4.26857e-09
-0.00112636
8.62641e-09
-1.30528e-06
3.15942e-07
-3.20034e-07
-9.94973e-07
3.1391e-07
9.96449e-07
-3.22882e-07
1.34159e-06
0.00112545
-3.95424e-09
-0.00112545
9.10652e-09
-1.33466e-06
3.18579e-07
-3.22858e-07
-9.97809e-07
3.13714e-07
-3.22922e-07
9.99033e-07
-1.30658e-06
0.000274944
-0.000272841
2.71702e-07
2.79226e-07
-4.09969e-09
8.7312e-09
-1.29974e-06
3.15903e-07
-3.20059e-07
-9.94857e-07
3.1663e-07
9.96171e-07
-3.25638e-07
1.30675e-06
0.00112653
1.80124e-09
-0.00112654
1.39938e-08
-1.29984e-06
3.15973e-07
-3.20087e-07
-9.94981e-07
3.1677e-07
-3.25724e-07
9.96639e-07
-0.000272854
2.74011e-07
2.79469e-07
1.34023e-06
1.30257e-06
-2.64553e-07
-2.72493e-07
0.00027286
-1.34713e-06
-1.30955e-06
0.000274966
-0.00027286
2.71467e-07
2.79447e-07
9.22419e-09
0.00112554
-3.2579e-07
1.34717e-06
3.21439e-07
9.9624e-07
-3.22895e-07
-9.95025e-07
3.13755e-07
-1.34591e-06
-3.88059e-09
1.45386e-08
0.00112599
-3.28686e-07
1.3528e-06
3.24304e-07
1.00214e-06
-3.25892e-07
-1.00078e-06
3.16617e-07
0.00112554
-4.05258e-09
-0.00112554
9.23073e-09
-1.34021e-06
3.21417e-07
-3.25748e-07
-9.94918e-07
3.13777e-07
-3.22825e-07
9.96291e-07
1.3528e-06
0.00112599
-3.97204e-09
-0.00112599
9.21878e-09
-1.34589e-06
3.24296e-07
-3.28663e-07
-1.00073e-06
3.16637e-07
-3.25841e-07
1.00215e-06
-2.67379e-07
-2.69706e-07
0.000272882
-1.3123e-06
0.000274996
-0.000272882
2.74334e-07
2.76632e-07
8.54739e-09
0.00112663
-3.22879e-07
1.30955e-06
3.18889e-07
9.9931e-07
-3.25707e-07
-9.97738e-07
3.16774e-07
-1.34023e-06
-4.17795e-09
9.07301e-09
0.00112565
-3.28574e-07
1.34726e-06
3.24376e-07
9.99074e-07
-3.25681e-07
-9.97804e-07
3.1667e-07
0.00112663
-4.45126e-09
-0.00112663
8.7893e-09
-1.30257e-06
3.18832e-07
-3.22937e-07
-9.97678e-07
3.16796e-07
-3.25689e-07
9.99379e-07
1.34721e-06
0.00112565
-3.98782e-09
-0.00112565
9.23021e-09
-1.34028e-06
3.24307e-07
-3.28636e-07
-9.97763e-07
3.16651e-07
-3.25682e-07
9.99095e-07
1.8735e-09
9.16089e-09
0.00112544
-3.22871e-07
1.34157e-06
3.18563e-07
9.96272e-07
-3.22912e-07
3.13743e-07
-9.97812e-07
-4.5086e-09
-0.00112636
8.80185e-09
-1.30527e-06
3.159e-07
-3.20038e-07
-9.94864e-07
3.13968e-07
9.96526e-07
-3.22794e-07
1.34155e-06
0.00112544
-4.0857e-09
-0.00112544
9.22427e-09
-1.33469e-06
3.1856e-07
-3.22849e-07
-9.94953e-07
3.13785e-07
-3.22835e-07
9.9634e-07
-2.64778e-07
-2.72229e-07
0.000272841
-1.30665e-06
0.000274944
-0.000272841
2.71703e-07
2.79191e-07
-4.30726e-09
8.84435e-09
0.00112653
-3.20121e-07
1.30673e-06
3.15947e-07
9.96639e-07
-3.25729e-07
3.16785e-07
-9.95023e-07
-4.30915e-09
-0.001126
8.88258e-09
-1.29968e-06
3.1592e-07
-3.20032e-07
-9.94714e-07
3.16693e-07
9.96314e-07
-3.25565e-07
1.30674e-06
0.00112653
-4.41867e-09
-0.00112653
8.8334e-09
-1.29985e-06
3.15968e-07
-3.20088e-07
-9.94983e-07
3.16818e-07
-3.25675e-07
9.96675e-07
-0.000272854
2.73996e-07
2.79445e-07
1.34021e-06
1.30257e-06
-2.6457e-07
-2.72477e-07
0.00027286
-1.34713e-06
-1.30953e-06
0.000274966
-0.00027286
2.71459e-07
2.79465e-07
9.22345e-09
0.00112554
-3.25751e-07
1.34712e-06
3.21399e-07
9.96286e-07
-3.22818e-07
-9.94913e-07
3.13774e-07
-1.34588e-06
-4.02138e-09
9.20615e-09
0.00112599
-3.28651e-07
1.3528e-06
3.24298e-07
1.00216e-06
-3.25823e-07
-1.00072e-06
3.16647e-07
0.00112554
-4.25036e-09
-0.00112554
9.17698e-09
-1.3402e-06
3.21417e-07
-3.25724e-07
-9.94837e-07
3.13813e-07
-3.22754e-07
9.96343e-07
1.35279e-06
0.00112599
-4.11038e-09
-0.00112599
9.15754e-09
-1.34587e-06
3.243e-07
-3.2862e-07
-1.00065e-06
3.16676e-07
-3.2576e-07
1.00219e-06
-2.67363e-07
-2.69686e-07
0.000272882
-1.3123e-06
0.000274996
-0.000272882
2.7435e-07
2.76637e-07
8.7997e-09
0.00112663
-3.2293e-07
1.30954e-06
3.18824e-07
9.99393e-07
-3.25678e-07
-9.97653e-07
3.168e-07
-1.34029e-06
-4.04248e-09
9.23604e-09
0.00112565
-3.2863e-07
1.34719e-06
3.24301e-07
9.991e-07
-3.2567e-07
-9.97751e-07
3.16654e-07
0.00112663
-4.60682e-09
-0.00112663
8.68056e-09
-1.30256e-06
3.18835e-07
-3.22895e-07
-9.97567e-07
3.16855e-07
-3.2559e-07
9.99454e-07
1.34719e-06
0.00112565
-4.15956e-09
-0.00112565
9.13881e-09
-1.34028e-06
3.24319e-07
-3.28593e-07
-9.97684e-07
3.16688e-07
-3.25609e-07
9.99146e-07
-4.13012e-09
9.19434e-09
0.00112544
-3.22836e-07
1.34155e-06
3.18559e-07
9.96352e-07
-3.22824e-07
3.13783e-07
-9.94932e-07
-4.67007e-09
-0.00112636
8.75828e-09
-1.30524e-06
3.15909e-07
-3.19992e-07
-9.94794e-07
3.13998e-07
9.96561e-07
-3.22726e-07
1.34152e-06
0.00112544
-4.18289e-09
-0.00112544
9.23132e-09
-1.33468e-06
3.18533e-07
-3.22838e-07
-9.9488e-07
3.13804e-07
-3.22776e-07
9.9637e-07
-2.64773e-07
-2.72259e-07
0.000272841
-1.30664e-06
0.000274944
-0.000272841
2.71705e-07
2.79195e-07
-4.47334e-09
8.7999e-09
0.00112653
-3.20072e-07
1.30674e-06
3.15966e-07
9.96697e-07
-3.25659e-07
3.16824e-07
-9.94957e-07
-4.60646e-09
-0.001126
8.76966e-09
-1.29966e-06
3.15935e-07
-3.19981e-07
-9.94612e-07
3.16738e-07
9.96384e-07
-3.25476e-07
1.30672e-06
0.00112653
-4.54582e-09
-0.00112653
8.80354e-09
-1.29984e-06
3.15936e-07
-3.20078e-07
-9.94886e-07
3.16852e-07
-3.25598e-07
9.96722e-07
-0.000272855
2.73982e-07
2.7943e-07
1.34018e-06
1.30255e-06
-2.64558e-07
-2.72437e-07
0.00027286
-1.34708e-06
-1.30951e-06
0.000274966
-0.00027286
2.71446e-07
2.79437e-07
9.16473e-09
0.00112554
-3.25699e-07
1.34713e-06
3.21429e-07
9.96353e-07
-3.22738e-07
-9.94825e-07
3.13818e-07
-1.34586e-06
-4.12653e-09
9.1383e-09
0.00112599
-3.28611e-07
1.35279e-06
3.24301e-07
1.00219e-06
-3.25737e-07
-1.00064e-06
3.16691e-07
0.00112554
-4.29284e-09
-0.00112554
9.25053e-09
-1.34021e-06
3.21364e-07
-3.2573e-07
-9.94766e-07
3.13832e-07
-3.22702e-07
9.96391e-07
1.35279e-06
0.00112599
-4.09498e-09
-0.00112599
9.10059e-09
-1.34585e-06
3.24289e-07
-3.28597e-07
-1.00062e-06
3.16707e-07
-3.25691e-07
1.00218e-06
-2.67331e-07
-2.69663e-07
0.000272882
-1.31228e-06
0.000274996
-0.000272882
2.74355e-07
2.76647e-07
8.66338e-09
0.00112663
-3.22874e-07
1.30953e-06
3.18845e-07
9.99464e-07
-3.25579e-07
-9.97542e-07
3.16854e-07
-1.34027e-06
-4.19318e-09
9.12569e-09
0.00112565
-3.28578e-07
1.34719e-06
3.2432e-07
9.99165e-07
-3.25588e-07
-9.9766e-07
3.16699e-07
0.00112663
-4.5706e-09
-0.00112663
8.73907e-09
-1.30256e-06
3.18804e-07
-3.22884e-07
-9.97549e-07
3.16844e-07
-3.25572e-07
9.99447e-07
1.34718e-06
0.00112565
-4.12813e-09
-0.00112565
9.08312e-09
-1.34027e-06
3.24301e-07
-3.28575e-07
-9.97633e-07
3.16698e-07
-3.25562e-07
9.99155e-07
-4.22441e-09
9.23983e-09
0.00112544
-3.22826e-07
1.34152e-06
3.18536e-07
9.96366e-07
-3.22757e-07
3.13813e-07
-9.94874e-07
-4.78162e-09
-0.00112635
8.81648e-09
-1.30523e-06
3.15881e-07
-3.19983e-07
-9.94743e-07
3.14033e-07
9.96581e-07
-3.22654e-07
1.34155e-06
0.00112544
-4.34256e-09
-0.00112544
9.12164e-09
-1.33464e-06
3.18584e-07
-3.22758e-07
-9.9483e-07
3.13846e-07
-3.22696e-07
9.9639e-07
-2.64752e-07
-2.72238e-07
0.000272841
-1.30663e-06
0.000274944
-0.000272841
2.71705e-07
2.79201e-07
-4.53115e-09
8.77248e-09
0.00112653
-3.20063e-07
1.30672e-06
3.15943e-07
9.9672e-07
-3.25578e-07
3.16861e-07
-9.94881e-07
-4.73121e-09
-0.001126
8.82038e-09
-1.29965e-06
3.15924e-07
-3.19952e-07
-9.94566e-07
3.16763e-07
9.96408e-07
-3.25423e-07
1.30675e-06
0.00112653
-4.60261e-09
-0.00112653
8.6508e-09
-1.29979e-06
3.15992e-07
-3.19992e-07
-9.94862e-07
3.16868e-07
-3.25537e-07
9.9671e-07
-0.000272854
2.74031e-07
2.79469e-07
1.34022e-06
1.30257e-06
-2.64568e-07
-2.72471e-07
0.00027286
-1.34709e-06
-1.3095e-06
0.000274965
-0.00027286
2.71445e-07
2.79443e-07
9.25985e-09
0.00112554
-3.25745e-07
1.34707e-06
3.21345e-07
9.96384e-07
-3.22693e-07
-9.94768e-07
3.1384e-07
-1.34585e-06
-4.06154e-09
9.11927e-09
0.00112599
-3.28602e-07
1.35278e-06
3.2428e-07
1.00217e-06
-3.25682e-07
-1.00063e-06
3.16708e-07
0.00112554
-4.27812e-09
-0.00112554
9.24945e-09
-1.3402e-06
3.21359e-07
-3.25733e-07
-9.94766e-07
3.13831e-07
-3.22678e-07
9.96375e-07
1.35279e-06
0.00112599
-4.07393e-09
-0.00112599
9.09216e-09
-1.34585e-06
3.24305e-07
-3.28579e-07
-1.00062e-06
3.16699e-07
-3.25673e-07
1.00216e-06
-2.67324e-07
-2.69647e-07
0.000272882
-1.31227e-06
0.000274996
-0.000272882
2.74346e-07
2.76672e-07
8.77608e-09
0.00112663
-3.229e-07
1.30949e-06
3.18782e-07
9.9945e-07
-3.25571e-07
-9.97543e-07
3.1684e-07
-1.34027e-06
-4.11457e-09
9.10278e-09
0.00112565
-3.28574e-07
1.34718e-06
3.24296e-07
9.99139e-07
-3.25559e-07
-9.97654e-07
3.16698e-07
0.00112663
-4.60322e-09
-0.00112663
8.76113e-09
-1.30257e-06
3.18788e-07
-3.22892e-07
-9.97524e-07
3.16852e-07
-3.25546e-07
9.99463e-07
1.34719e-06
0.00112565
-4.05827e-09
-0.00112565
9.12141e-09
-1.34026e-06
3.24286e-07
-3.28573e-07
-9.97664e-07
3.16689e-07
-3.25553e-07
9.99122e-07
-4.33901e-09
9.10713e-09
0.00112544
-3.22745e-07
1.34155e-06
3.18583e-07
9.96383e-07
-3.22691e-07
3.13844e-07
-9.94833e-07
-4.84515e-09
-0.00112635
8.78568e-09
-1.30524e-06
3.15876e-07
-3.19986e-07
-9.94692e-07
3.14092e-07
9.96613e-07
-3.22575e-07
1.3415e-06
0.00112544
-4.28042e-09
-0.00112544
9.20166e-09
-1.33467e-06
3.18513e-07
-3.22799e-07
-9.94803e-07
3.13869e-07
-3.22651e-07
9.96403e-07
-2.6475e-07
-2.72226e-07
0.000272841
-1.3066e-06
0.000274944
-0.000272841
2.71687e-07
2.79214e-07
-4.56062e-09
8.64982e-09
0.00112653
-3.19982e-07
1.30675e-06
3.15987e-07
9.96715e-07
-3.25535e-07
3.16867e-07
-9.94862e-07
-4.83896e-09
-0.001126
8.88361e-09
-1.29967e-06
3.15886e-07
-3.1997e-07
-9.94501e-07
3.16808e-07
9.96458e-07
-3.25354e-07
1.30669e-06
0.00112653
-4.52385e-09
-0.00112653
8.79539e-09
-1.29983e-06
3.15905e-07
-3.20049e-07
-9.94829e-07
3.16892e-07
-3.25496e-07
9.96721e-07
-0.000272854
2.73989e-07
2.79442e-07
1.3402e-06
1.30256e-06
-2.64563e-07
-2.72452e-07
0.00027286
-1.34709e-06
-1.30951e-06
0.000274965
-0.00027286
2.71462e-07
2.79449e-07
9.254e-09
0.00112554
-3.2572e-07
1.34709e-06
3.21364e-07
9.96357e-07
-3.22688e-07
-9.94784e-07
3.13821e-07
-1.34582e-06
-4.15707e-09
9.04402e-09
0.00112599
-3.2854e-07
1.35282e-06
3.24342e-07
1.00217e-06
-3.2566e-07
-1.00061e-06
3.16708e-07
0.00112554
-4.32174e-09
-0.00112554
9.22031e-09
-1.3402e-06
3.21374e-07
-3.25705e-07
-9.94765e-07
3.13835e-07
-3.22675e-07
9.96385e-07
1.35278e-06
0.00112599
-4.12699e-09
-0.00112599
9.17001e-09
-1.34583e-06
3.24271e-07
-3.28571e-07
-1.00062e-06
3.16702e-07
-3.25663e-07
1.00215e-06
-2.67306e-07
-2.69602e-07
0.000272882
-1.31231e-06
0.000274995
-0.000272881
2.7439e-07
2.76638e-07
8.75947e-09
0.00112663
-3.22881e-07
1.3095e-06
3.18792e-07
9.99456e-07
-3.25551e-07
-9.97528e-07
3.16846e-07
-1.34025e-06
-4.07544e-09
9.13238e-09
0.00112565
-3.28567e-07
1.34719e-06
3.24288e-07
9.99123e-07
-3.25552e-07
-9.97672e-07
3.1669e-07
0.00112663
-4.59127e-09
-0.00112663
8.72591e-09
-1.30255e-06
3.18815e-07
-3.22854e-07
-9.97557e-07
3.16838e-07
-3.25554e-07
9.99437e-07
1.34715e-06
0.00112565
-4.00162e-09
-0.00112565
9.21094e-09
-1.34028e-06
3.24258e-07
-3.28588e-07
-9.97671e-07
3.16661e-07
-3.25574e-07
9.99118e-07
-4.2973e-09
9.18578e-09
0.00112544
-3.22795e-07
1.34151e-06
3.18524e-07
9.96397e-07
-3.22646e-07
3.13865e-07
-9.94799e-07
-4.58415e-09
-0.00112635
8.78403e-09
-1.30518e-06
3.15892e-07
-3.19935e-07
-9.94785e-07
3.13995e-07
9.96508e-07
-3.22651e-07
1.34154e-06
0.00112544
-4.20794e-09
-0.00112544
9.10434e-09
-1.33463e-06
3.18551e-07
-3.22756e-07
-9.94838e-07
3.13839e-07
-3.22667e-07
9.96353e-07
-2.64763e-07
-2.72207e-07
0.000272841
-1.30658e-06
0.000274943
-0.000272841
2.71674e-07
2.79194e-07
-4.5186e-09
8.77534e-09
0.00112653
-3.20044e-07
1.3067e-06
3.15916e-07
9.96727e-07
-3.25482e-07
3.16899e-07
-9.94829e-07
-4.73965e-09
-0.001126
8.92452e-09
-1.29968e-06
3.1587e-07
-3.1998e-07
-9.94537e-07
3.16782e-07
9.96424e-07
-3.25371e-07
1.30671e-06
0.00112653
-4.53141e-09
-0.00112653
8.75385e-09
-1.29981e-06
3.15924e-07
-3.20028e-07
-9.94834e-07
3.16875e-07
-3.25494e-07
9.96706e-07
-0.000272854
2.74006e-07
2.79469e-07
1.34019e-06
1.30255e-06
-2.64544e-07
-2.7245e-07
0.000272859
-1.34709e-06
-1.3095e-06
0.000274965
-0.000272859
2.71463e-07
2.79457e-07
9.1811e-09
0.00112554
-3.25699e-07
1.34709e-06
3.21376e-07
9.96379e-07
-3.22671e-07
-9.94768e-07
3.13836e-07
-1.34587e-06
-4.05039e-09
9.26136e-09
0.00112599
-3.28622e-07
1.35273e-06
3.24224e-07
1.00215e-06
-3.25655e-07
-1.00062e-06
3.16707e-07
0.00112554
-4.34366e-09
-0.00112554
9.18725e-09
-1.34019e-06
3.2136e-07
-3.25708e-07
-9.94746e-07
3.13851e-07
-3.2266e-07
9.96414e-07
1.35278e-06
0.00112599
-4.15853e-09
-0.00112599
9.13204e-09
-1.34585e-06
3.24296e-07
-3.28577e-07
-1.00059e-06
3.16735e-07
-3.25617e-07
1.00218e-06
-2.67292e-07
-2.69673e-07
0.000272881
-1.31231e-06
0.000274995
-0.000272881
2.74401e-07
2.76649e-07
8.71869e-09
0.00112663
-3.22848e-07
1.30951e-06
3.18816e-07
9.99447e-07
-3.25561e-07
-9.97553e-07
3.16836e-07
-1.34029e-06
-4.05159e-09
9.22691e-09
0.00112565
-3.28593e-07
1.34715e-06
3.24256e-07
9.99123e-07
-3.25574e-07
-9.97681e-07
3.16671e-07
0.00112663
-4.67343e-09
-0.00112663
8.72119e-09
-1.30255e-06
3.1879e-07
-3.22864e-07
-9.97518e-07
3.16867e-07
-3.25534e-07
9.99486e-07
1.34717e-06
0.00112565
-4.1782e-09
-0.00112565
9.15887e-09
-1.34027e-06
3.24273e-07
-3.28571e-07
-9.97628e-07
3.16707e-07
-3.25536e-07
9.9918e-07
-4.19068e-09
9.08668e-09
0.00112544
-3.22755e-07
1.34153e-06
3.18553e-07
9.96339e-07
-3.22671e-07
3.13838e-07
-9.94853e-07
-4.75878e-09
-0.00112635
8.73412e-09
-1.3052e-06
3.15911e-07
-3.19939e-07
-9.94746e-07
3.1404e-07
9.96565e-07
-3.22616e-07
1.34157e-06
0.00112544
-4.28061e-09
-0.00112544
9.04287e-09
-1.33461e-06
3.18597e-07
-3.22709e-07
-9.94822e-07
3.13859e-07
-3.22641e-07
9.96381e-07
-2.6478e-07
-2.7224e-07
0.00027284
-1.30663e-06
0.000274943
-0.00027284
2.71717e-07
2.7921e-07
-4.49864e-09
8.74574e-09
0.00112653
-3.20027e-07
1.30671e-06
3.15928e-07
9.96695e-07
-3.25504e-07
3.1687e-07
-9.94855e-07
-4.77717e-09
-0.00112599
8.8096e-09
-1.29964e-06
3.1591e-07
-3.19938e-07
-9.94519e-07
3.16794e-07
9.96454e-07
-3.2536e-07
1.30674e-06
0.00112653
-4.64537e-09
-0.00112653
8.66589e-09
-1.29979e-06
3.15971e-07
-3.1998e-07
-9.94816e-07
3.16898e-07
-3.25472e-07
9.96742e-07
-0.000272854
2.74034e-07
2.79506e-07
1.3402e-06
1.30256e-06
-2.64551e-07
-2.72446e-07
0.000272859
-1.34715e-06
-1.30955e-06
0.000274965
-0.000272859
2.71517e-07
2.79527e-07
9.19276e-09
0.00112554
-3.25716e-07
1.34708e-06
3.21351e-07
9.96419e-07
-3.22643e-07
-9.94737e-07
3.13871e-07
-1.34582e-06
-4.19387e-09
9.10442e-09
0.00112599
-3.28547e-07
1.35281e-06
3.24311e-07
1.0022e-06
-3.2561e-07
-1.00057e-06
3.16739e-07
0.00112553
-4.55855e-09
-0.00112553
8.99734e-09
-1.34014e-06
3.21436e-07
-3.25643e-07
-9.94689e-07
3.13936e-07
-3.22572e-07
9.96473e-07
1.35277e-06
0.00112599
-4.14755e-09
-0.00112599
9.20706e-09
-1.34586e-06
3.24249e-07
-3.28607e-07
-1.00057e-06
3.16751e-07
-3.25608e-07
1.0022e-06
-2.67257e-07
-2.69626e-07
0.000272881
-1.31227e-06
0.000274995
-0.000272881
2.74369e-07
2.76653e-07
8.72026e-09
0.00112663
-3.22874e-07
1.30949e-06
3.18781e-07
9.99497e-07
-3.25519e-07
-9.97508e-07
3.16888e-07
-1.34028e-06
-4.19763e-09
9.21123e-09
0.00112565
-3.28587e-07
1.34715e-06
3.24247e-07
9.9919e-07
-3.25525e-07
-9.97623e-07
3.16725e-07
0.00112663
-4.94757e-09
-0.00112663
8.57513e-09
-1.30252e-06
3.18855e-07
-3.22809e-07
-9.97448e-07
3.16967e-07
-3.25432e-07
9.99565e-07
1.34714e-06
0.00112565
-4.344e-09
-0.00112565
9.22061e-09
-1.34031e-06
3.24235e-07
-3.28618e-07
-9.9756e-07
3.16792e-07
-3.25456e-07
9.99259e-07
-4.28929e-09
9.09171e-09
0.00112544
-3.22718e-07
1.34156e-06
3.18575e-07
9.96388e-07
-3.22647e-07
3.13855e-07
-9.94813e-07
-4.84725e-09
-0.00112635
8.76339e-09
-1.30523e-06