/*--------------------------------*- C++ -*----------------------------------*\
| =========                 |                                                 |
| \\      /  F ield         | OpenFOAM: The Open Source CFD Toolbox           |
|  \\    /   O peration     | Version:  v1912                                 |
|   \\  /    A nd           | Website:  www.openfoam.com                      |
|    \\/     M anipulation  |                                                 |
\*---------------------------------------------------------------------------*/
FoamFile
{
    version     2.0;
    format      ascii;
    class       volVectorField;
    location    "80";
    object      U;
}
// * * * * * * * * * * * * * * * * * * * * * * * * * * * * * * * * * * * * * //

dimensions      [0 1 -1 0 0 0 0];


internalField   nonuniform List<vector> 
57062
(
(-1.91755e-06 -1.92912e-06 0.107568)
(-1.34107e-06 2.27803e-06 0.106935)
(2.27934e-06 -1.33493e-06 0.106935)
(-6.70663e-05 -6.70726e-05 0.106089)
(-1.9255e-06 -1.92475e-06 0.107568)
(-1.32834e-06 2.28789e-06 0.106935)
(2.28865e-06 -1.34759e-06 0.106935)
(-6.70652e-05 -6.70774e-05 0.106089)
(-1.94038e-06 -1.93775e-06 0.107568)
(-1.31591e-06 2.28285e-06 0.106935)
(2.27951e-06 -1.3278e-06 0.106935)
(-6.70669e-05 -6.70779e-05 0.106089)
(-1.9317e-06 -1.93165e-06 0.107568)
(-1.31012e-06 2.29142e-06 0.106935)
(2.28697e-06 -1.31578e-06 0.106935)
(-6.7045e-05 -6.70591e-05 0.106089)
(-1.93155e-06 -1.92907e-06 0.107568)
(-1.30645e-06 2.27546e-06 0.106935)
(2.29322e-06 -1.30157e-06 0.106935)
(-6.70641e-05 -6.7073e-05 0.106089)
(-1.93506e-06 -1.93191e-06 0.107568)
(-1.34066e-06 2.29129e-06 0.106935)
(2.29726e-06 -1.31478e-06 0.106935)
(-6.70591e-05 -6.70616e-05 0.106089)
(-1.94022e-06 -1.93664e-06 0.107568)
(-1.30355e-06 2.2732e-06 0.106935)
(2.29261e-06 -1.31431e-06 0.106935)
(-6.70486e-05 -6.70484e-05 0.106088)
(-1.95574e-06 -1.94712e-06 0.107567)
(-1.29576e-06 2.28375e-06 0.106935)
(2.28428e-06 -1.30686e-06 0.106935)
(-6.70617e-05 -6.70665e-05 0.106088)
(-1.95503e-06 -1.9351e-06 0.107567)
(-1.31091e-06 2.29619e-06 0.106935)
(2.27489e-06 -1.30224e-06 0.106934)
(-6.70721e-05 -6.70816e-05 0.106088)
(-1.94021e-06 -1.92437e-06 0.107567)
(-1.31127e-06 2.30404e-06 0.106935)
(2.2842e-06 -1.30604e-06 0.106934)
(-6.70926e-05 -6.70969e-05 0.106088)
(-1.92816e-06 -1.92228e-06 0.107567)
(-1.32654e-06 2.31089e-06 0.106934)
(2.30414e-06 -1.31843e-06 0.106934)
(-6.70999e-05 -6.70977e-05 0.106088)
(-1.93358e-06 -1.92787e-06 0.107567)
(-1.33206e-06 2.30139e-06 0.106934)
(2.30044e-06 -1.34308e-06 0.106934)
(-6.71178e-05 -6.71226e-05 0.106087)
(-1.94172e-06 -1.92542e-06 0.107567)
(-1.34415e-06 2.29971e-06 0.106934)
(2.29361e-06 -1.33021e-06 0.106934)
(-6.71289e-05 -6.71281e-05 0.106087)
(-1.91598e-06 -1.90278e-06 0.107567)
(-1.3918e-06 2.31501e-06 0.106934)
(2.30847e-06 -1.36698e-06 0.106934)
(-6.71674e-05 -6.7147e-05 0.106087)
(-1.8402e-06 -1.8329e-06 0.107568)
(-1.46664e-06 2.36517e-06 0.106935)
(2.35413e-06 -1.44197e-06 0.106934)
(-6.72698e-05 -6.72743e-05 0.106087)
(-1.8203e-06 -1.83139e-06 0.107568)
(-1.40387e-06 2.33486e-06 0.106935)
(2.35686e-06 -1.43313e-06 0.106935)
(-6.7222e-05 -6.72609e-05 0.106088)
(-1.90014e-06 -1.90468e-06 0.107569)
(-1.33176e-06 2.29105e-06 0.106936)
(2.3065e-06 -1.35105e-06 0.106935)
(-6.71135e-05 -6.71492e-05 0.106089)
(-1.95496e-06 -1.96064e-06 0.107569)
(-1.27748e-06 2.25782e-06 0.106936)
(2.27014e-06 -1.28551e-06 0.106936)
(-6.6996e-05 -6.70099e-05 0.106089)
(-1.97506e-06 -1.9674e-06 0.107569)
(-1.29512e-06 2.2523e-06 0.106936)
(2.25035e-06 -1.28358e-06 0.106935)
(-6.69668e-05 -6.69679e-05 0.106089)
(-1.94507e-06 -1.92931e-06 0.107569)
(-1.35331e-06 2.2927e-06 0.106936)
(2.28537e-06 -1.33852e-06 0.106935)
(-6.69325e-05 -6.69237e-05 0.106089)
(-1.9097e-06 -1.8985e-06 0.107569)
(-1.40991e-06 2.33106e-06 0.106936)
(2.32771e-06 -1.39944e-06 0.106935)
(-6.68221e-05 -6.68254e-05 0.106088)
(-1.87194e-06 -1.86582e-06 0.107569)
(-1.5025e-06 2.3863e-06 0.106936)
(2.38177e-06 -1.49506e-06 0.106935)
(-6.66424e-05 -6.66476e-05 0.106088)
(-1.82251e-06 -1.81431e-06 0.10757)
(-1.66831e-06 2.49548e-06 0.106935)
(2.4939e-06 -1.66123e-06 0.106935)
(-6.63329e-05 -6.63357e-05 0.106089)
(-1.7539e-06 -1.74209e-06 0.107571)
(-1.98012e-06 2.69833e-06 0.106935)
(2.68822e-06 -1.96604e-06 0.106935)
(-6.58015e-05 -6.58088e-05 0.106089)
(-1.65004e-06 -1.64178e-06 0.107572)
(-2.55462e-06 3.06284e-06 0.106935)
(3.06851e-06 -2.55442e-06 0.106935)
(-6.48682e-05 -6.48787e-05 0.10609)
(-1.57509e-06 -1.56468e-06 0.107575)
(-3.53923e-06 3.72774e-06 0.106935)
(3.72346e-06 -3.52927e-06 0.106934)
(-6.30866e-05 -6.3099e-05 0.106093)
(-1.62135e-06 -1.6098e-06 0.107578)
(-5.24407e-06 4.89532e-06 0.106934)
(4.89091e-06 -5.23395e-06 0.106934)
(-5.95514e-05 -5.95631e-05 0.106099)
(-2.02337e-06 -2.008e-06 0.107584)
(-8.21293e-06 6.95598e-06 0.106934)
(6.95142e-06 -8.17974e-06 0.106934)
(-5.17586e-05 -5.17503e-05 0.106111)
(-6.9943e-06 -6.92758e-06 0.107587)
(-1.07157e-05 9.04206e-06 0.106934)
(9.0185e-06 -1.06938e-05 0.106934)
(-3.24615e-05 -3.24308e-05 0.106131)
(-4.04654e-05 -4.03296e-05 0.107557)
(4.10036e-05 -2.77262e-05 0.106958)
(-2.78167e-05 4.10035e-05 0.106958)
(3.45515e-05 3.46237e-05 0.106218)
(-7.25616e-05 -7.25632e-05 0.106164)
(2.36258e-06 1.46084e-06 0.106935)
(-2.35905e-06 1.41122e-06 0.106935)
(7.25914e-05 -7.25545e-05 0.106165)
(1.37013e-06 2.23211e-06 0.106935)
(1.40239e-06 -2.32867e-06 0.106935)
(-1.35009e-06 2.27206e-06 0.106935)
(-1.40497e-06 -2.32151e-06 0.106935)
(-7.2531e-05 7.26348e-05 0.106164)
(2.27963e-06 -1.36063e-06 0.106935)
(-2.27592e-06 -1.3501e-06 0.106935)
(7.25473e-05 7.25845e-05 0.106164)
(6.70757e-05 6.70254e-05 0.106089)
(-7.25808e-05 -7.25428e-05 0.106164)
(2.34934e-06 1.43224e-06 0.106935)
(-2.36708e-06 1.39742e-06 0.106935)
(2.34626e-06 1.39627e-06 0.106935)
(-2.35949e-06 1.39895e-06 0.106935)
(-6.70582e-05 6.70134e-05 0.106089)
(7.25818e-05 -7.25431e-05 0.106165)
(1.34888e-06 2.24345e-06 0.106935)
(1.37303e-06 -2.32426e-06 0.106935)
(1.34054e-06 2.28113e-06 0.106935)
(1.3956e-06 -2.34164e-06 0.106935)
(-1.38673e-06 -2.33159e-06 0.106935)
(-1.32721e-06 2.28972e-06 0.106935)
(-1.38381e-06 -2.33684e-06 0.106935)
(6.70419e-05 -6.70447e-05 0.106089)
(-7.2539e-05 7.25959e-05 0.106164)
(-2.28919e-06 -1.33327e-06 0.106935)
(2.28852e-06 -1.34927e-06 0.106935)
(-2.28512e-06 -1.33192e-06 0.106935)
(7.25293e-05 7.25609e-05 0.106164)
(6.70554e-05 6.70373e-05 0.106089)
(-7.25776e-05 -7.25327e-05 0.106164)
(2.34849e-06 1.39835e-06 0.106935)
(-2.35743e-06 1.39868e-06 0.106935)
(2.34241e-06 1.37948e-06 0.106935)
(-2.3521e-06 1.39699e-06 0.106935)
(-6.70513e-05 6.70076e-05 0.106089)
(7.2576e-05 -7.25444e-05 0.106165)
(1.34252e-06 2.28455e-06 0.106935)
(1.39327e-06 -2.34302e-06 0.106935)
(1.3299e-06 2.27425e-06 0.106935)
(1.3845e-06 -2.33229e-06 0.106935)
(-1.38735e-06 -2.33336e-06 0.106935)
(-1.31879e-06 2.28418e-06 0.106935)
(-1.37833e-06 -2.33746e-06 0.106935)
(6.70305e-05 -6.70755e-05 0.106089)
(-7.2534e-05 7.25867e-05 0.106164)
(-2.28202e-06 -1.33355e-06 0.106935)
(2.28122e-06 -1.32858e-06 0.106935)
(-2.28206e-06 -1.32893e-06 0.106935)
(7.25182e-05 7.25503e-05 0.106164)
(6.70456e-05 6.70364e-05 0.106089)
(-7.25628e-05 -7.25256e-05 0.106164)
(2.33988e-06 1.3798e-06 0.106935)
(-2.34994e-06 1.39402e-06 0.106935)
(2.35348e-06 1.37181e-06 0.106935)
(-2.34623e-06 1.39391e-06 0.106935)
(-6.70454e-05 6.69956e-05 0.106089)
(7.25754e-05 -7.25409e-05 0.106165)
(1.32958e-06 2.27267e-06 0.106935)
(1.38066e-06 -2.33119e-06 0.106935)
(1.33052e-06 2.28206e-06 0.106935)
(1.38412e-06 -2.32856e-06 0.106935)
(-1.38014e-06 -2.33831e-06 0.106935)
(-1.31094e-06 2.28764e-06 0.106935)
(-1.35656e-06 -2.32284e-06 0.106935)
(6.70245e-05 -6.70744e-05 0.106089)
(-7.25308e-05 7.25809e-05 0.106164)
(-2.27874e-06 -1.33099e-06 0.106935)
(2.28355e-06 -1.317e-06 0.106935)
(-2.26218e-06 -1.30796e-06 0.106935)
(7.25306e-05 7.25601e-05 0.106164)
(6.70597e-05 6.70399e-05 0.106089)
(-7.2564e-05 -7.25243e-05 0.106164)
(2.35356e-06 1.37519e-06 0.106935)
(-2.34913e-06 1.39571e-06 0.106935)
(2.35009e-06 1.3687e-06 0.106935)
(-2.34524e-06 1.39677e-06 0.106935)
(-6.70409e-05 6.69955e-05 0.106089)
(7.25784e-05 -7.25333e-05 0.106165)
(1.33253e-06 2.28771e-06 0.106935)
(1.38329e-06 -2.32919e-06 0.106935)
(1.32338e-06 2.28731e-06 0.106935)
(1.38757e-06 -2.33019e-06 0.106935)
(-1.36448e-06 -2.32168e-06 0.106935)
(-1.30411e-06 2.28618e-06 0.106935)
(-1.36014e-06 -2.33454e-06 0.106935)
(6.70245e-05 -6.7075e-05 0.106089)
(-7.25217e-05 7.2584e-05 0.106164)
(-2.26288e-06 -1.31283e-06 0.106935)
(2.29364e-06 -1.30336e-06 0.106935)
(-2.28005e-06 -1.3122e-06 0.106935)
(7.25073e-05 7.25433e-05 0.106164)
(6.70524e-05 6.70367e-05 0.106089)
(-7.25653e-05 -7.25312e-05 0.106164)
(2.34888e-06 1.37314e-06 0.106935)
(-2.33818e-06 1.38809e-06 0.106935)
(2.34834e-06 1.36405e-06 0.106935)
(-2.35278e-06 1.39143e-06 0.106935)
(-6.7028e-05 6.69902e-05 0.106089)
(7.2573e-05 -7.2554e-05 0.106164)
(1.32518e-06 2.28744e-06 0.106935)
(1.38486e-06 -2.3303e-06 0.106935)
(1.32564e-06 2.28387e-06 0.106935)
(1.39415e-06 -2.34326e-06 0.106934)
(-1.36538e-06 -2.33082e-06 0.106935)
(-1.33177e-06 2.28085e-06 0.106935)
(-1.36926e-06 -2.32244e-06 0.106935)
(6.70297e-05 -6.70691e-05 0.106089)
(-7.25174e-05 7.25746e-05 0.106164)
(-2.27591e-06 -1.31372e-06 0.106935)
(2.30023e-06 -1.31278e-06 0.106935)
(-2.27605e-06 -1.31483e-06 0.106935)
(7.25163e-05 7.25571e-05 0.106164)
(6.70526e-05 6.70305e-05 0.106089)
(-7.25679e-05 -7.25289e-05 0.106164)
(2.34411e-06 1.36749e-06 0.106935)
(-2.36446e-06 1.39858e-06 0.106935)
(2.3477e-06 1.36267e-06 0.106935)
(-2.34391e-06 1.38853e-06 0.106934)
(-6.70467e-05 6.69821e-05 0.106089)
(7.25741e-05 -7.2554e-05 0.106164)
(1.32483e-06 2.28321e-06 0.106935)
(1.38849e-06 -2.34367e-06 0.106934)
(1.31871e-06 2.28729e-06 0.106935)
(1.37711e-06 -2.33768e-06 0.106934)
(-1.37952e-06 -2.32194e-06 0.106934)
(-1.31044e-06 2.27659e-06 0.106935)
(-1.36253e-06 -2.312e-06 0.106934)
(6.70379e-05 -6.70831e-05 0.106089)
(-7.25341e-05 7.25806e-05 0.106164)
(-2.27595e-06 -1.32088e-06 0.106935)
(2.2865e-06 -1.30933e-06 0.106935)
(-2.26349e-06 -1.30022e-06 0.106935)
(7.25259e-05 7.25694e-05 0.106164)
(6.70515e-05 6.70351e-05 0.106089)
(-7.25897e-05 -7.25447e-05 0.106164)
(2.3498e-06 1.36691e-06 0.106935)
(-2.34054e-06 1.38608e-06 0.106934)
(2.32513e-06 1.34236e-06 0.106934)
(-2.35501e-06 1.39187e-06 0.106934)
(-6.70324e-05 6.69724e-05 0.106089)
(7.25734e-05 -7.25396e-05 0.106164)
(1.31819e-06 2.28976e-06 0.106935)
(1.37565e-06 -2.34577e-06 0.106934)
(1.29319e-06 2.27007e-06 0.106935)
(1.36099e-06 -2.34476e-06 0.106934)
(-1.37027e-06 -2.31907e-06 0.106934)
(-1.30094e-06 2.28914e-06 0.106935)
(-1.35574e-06 -2.32881e-06 0.106934)
(6.70223e-05 -6.70792e-05 0.106088)
(-7.25361e-05 7.25709e-05 0.106164)
(-2.26746e-06 -1.30618e-06 0.106935)
(2.28286e-06 -1.30246e-06 0.106935)
(-2.27344e-06 -1.29776e-06 0.106935)
(7.25146e-05 7.25545e-05 0.106164)
(6.70315e-05 6.70212e-05 0.106088)
(-7.25725e-05 -7.25195e-05 0.106164)
(2.32882e-06 1.35226e-06 0.106934)
(-2.34958e-06 1.38471e-06 0.106934)
(2.34313e-06 1.36018e-06 0.106934)
(-2.35084e-06 1.3892e-06 0.106934)
(-6.70414e-05 6.69943e-05 0.106088)
(7.25866e-05 -7.25494e-05 0.106164)
(1.29882e-06 2.27595e-06 0.106935)
(1.36154e-06 -2.34839e-06 0.106934)
(1.3054e-06 2.29639e-06 0.106935)
(1.36307e-06 -2.3453e-06 0.106934)
(-1.35923e-06 -2.32664e-06 0.106934)
(-1.29945e-06 2.28649e-06 0.106935)
(-1.35125e-06 -2.33025e-06 0.106934)
(6.70213e-05 -6.70888e-05 0.106088)
(-7.25415e-05 7.25742e-05 0.106164)
(-2.2696e-06 -1.30265e-06 0.106935)
(2.28048e-06 -1.30498e-06 0.106934)
(-2.2788e-06 -1.30489e-06 0.106934)
(7.2519e-05 7.25528e-05 0.106164)
(6.70556e-05 6.70544e-05 0.106088)
(-7.25768e-05 -7.25226e-05 0.106164)
(2.33835e-06 1.36513e-06 0.106934)
(-2.36394e-06 1.39493e-06 0.106934)
(2.35238e-06 1.36787e-06 0.106934)
(-2.37275e-06 1.39711e-06 0.106934)
(-6.70437e-05 6.69986e-05 0.106088)
(7.25682e-05 -7.25366e-05 0.106164)
(1.3041e-06 2.29621e-06 0.106935)
(1.36218e-06 -2.34195e-06 0.106934)
(1.31069e-06 2.30692e-06 0.106934)
(1.36952e-06 -2.34157e-06 0.106934)
(-1.36875e-06 -2.33791e-06 0.106934)
(-1.31429e-06 2.30267e-06 0.106935)
(-1.36819e-06 -2.34297e-06 0.106934)
(6.70245e-05 -6.70932e-05 0.106088)
(-7.25476e-05 7.25871e-05 0.106163)
(-2.28894e-06 -1.31734e-06 0.106934)
(2.28378e-06 -1.31155e-06 0.106934)
(-2.30255e-06 -1.31558e-06 0.106934)
(7.25024e-05 7.25421e-05 0.106163)
(6.7073e-05 6.70695e-05 0.106088)
(-7.25544e-05 -7.25175e-05 0.106163)
(2.36318e-06 1.37556e-06 0.106934)
(-2.37137e-06 1.39455e-06 0.106934)
(2.37644e-06 1.37597e-06 0.106934)
(-2.38034e-06 1.4107e-06 0.106934)
(-6.70664e-05 6.70178e-05 0.106088)
(7.25711e-05 -7.25347e-05 0.106163)
(1.32069e-06 2.31648e-06 0.106934)
(1.36817e-06 -2.33885e-06 0.106934)
(1.33739e-06 2.31948e-06 0.106934)
(1.39139e-06 -2.34809e-06 0.106934)
(-1.36955e-06 -2.33954e-06 0.106934)
(-1.32359e-06 2.31619e-06 0.106934)
(-1.36959e-06 -2.33778e-06 0.106934)
(6.70368e-05 -6.70978e-05 0.106088)
(-7.25401e-05 7.25861e-05 0.106163)
(-2.29699e-06 -1.31896e-06 0.106934)
(2.30354e-06 -1.30887e-06 0.106934)
(-2.29703e-06 -1.31643e-06 0.106934)
(7.25184e-05 7.25634e-05 0.106163)
(6.71021e-05 6.70825e-05 0.106088)
(-7.25805e-05 -7.25412e-05 0.106163)
(2.36783e-06 1.37788e-06 0.106934)
(-2.377e-06 1.4081e-06 0.106934)
(2.35795e-06 1.38172e-06 0.106934)
(-2.37815e-06 1.42121e-06 0.106934)
(-6.70862e-05 6.70405e-05 0.106088)
(7.25801e-05 -7.25471e-05 0.106163)
(1.33616e-06 2.3116e-06 0.106934)
(1.38899e-06 -2.35422e-06 0.106934)
(1.34099e-06 2.30188e-06 0.106934)
(1.40187e-06 -2.37483e-06 0.106934)
(-1.3791e-06 -2.33625e-06 0.106934)
(-1.33694e-06 2.30763e-06 0.106934)
(-1.38737e-06 -2.34998e-06 0.106934)
(6.70634e-05 -6.71223e-05 0.106088)
(-7.25414e-05 7.25643e-05 0.106163)
(-2.29399e-06 -1.32154e-06 0.106934)
(2.30796e-06 -1.34875e-06 0.106934)
(-2.2995e-06 -1.33822e-06 0.106934)
(7.25172e-05 7.25574e-05 0.106163)
(6.70946e-05 6.70791e-05 0.106087)
(-7.25905e-05 -7.25403e-05 0.106163)
(2.35201e-06 1.38167e-06 0.106934)
(-2.37283e-06 1.41143e-06 0.106934)
(2.35509e-06 1.3861e-06 0.106934)
(-2.38071e-06 1.41314e-06 0.106934)
(-6.70956e-05 6.70463e-05 0.106087)
(7.25807e-05 -7.25608e-05 0.106163)
(1.33663e-06 2.29743e-06 0.106934)
(1.3944e-06 -2.37055e-06 0.106934)
(1.33405e-06 2.30305e-06 0.106934)
(1.399e-06 -2.36796e-06 0.106934)
(-1.38663e-06 -2.34786e-06 0.106934)
(-1.34534e-06 2.30422e-06 0.106934)
(-1.3919e-06 -2.35264e-06 0.106934)
(6.70764e-05 -6.71552e-05 0.106087)
(-7.25509e-05 7.25837e-05 0.106163)
(-2.29297e-06 -1.34063e-06 0.106934)
(2.29991e-06 -1.33442e-06 0.106934)
(-2.3052e-06 -1.33986e-06 0.106934)
(7.2519e-05 7.25616e-05 0.106163)
(6.70907e-05 6.70866e-05 0.106087)
(-7.25831e-05 -7.25236e-05 0.106163)
(2.34784e-06 1.38772e-06 0.106934)
(-2.37932e-06 1.40792e-06 0.106934)
(2.35752e-06 1.40209e-06 0.106934)
(-2.40793e-06 1.43609e-06 0.106934)
(-6.71054e-05 6.70426e-05 0.106087)
(7.2545e-05 -7.25477e-05 0.106163)
(1.32868e-06 2.30135e-06 0.106934)
(1.39066e-06 -2.36563e-06 0.106934)
(1.34957e-06 2.31797e-06 0.106934)
(1.41422e-06 -2.39102e-06 0.106934)
(-1.39748e-06 -2.35004e-06 0.106934)
(-1.38199e-06 2.31498e-06 0.106934)
(-1.4283e-06 -2.35865e-06 0.106934)
(6.70728e-05 -6.71426e-05 0.106087)
(-7.2539e-05 7.25577e-05 0.106163)
(-2.30549e-06 -1.34328e-06 0.106934)
(2.30944e-06 -1.36004e-06 0.106934)
(-2.32346e-06 -1.35865e-06 0.106934)
(7.24937e-05 7.25569e-05 0.106163)
(6.71112e-05 6.71142e-05 0.106087)
(-7.25102e-05 -7.24629e-05 0.106163)
(2.35758e-06 1.41166e-06 0.106934)
(-2.41379e-06 1.43973e-06 0.106934)
(2.40624e-06 1.47586e-06 0.106934)
(-2.45495e-06 1.51385e-06 0.106934)
(-6.71563e-05 6.70708e-05 0.106087)
(7.24824e-05 -7.24706e-05 0.106163)
(1.35619e-06 2.31879e-06 0.106934)
(1.41538e-06 -2.39076e-06 0.106934)
(1.42868e-06 2.35697e-06 0.106934)
(1.48792e-06 -2.42043e-06 0.106934)
(-1.44342e-06 -2.35821e-06 0.106934)
(-1.45905e-06 2.36018e-06 0.106934)
(-1.50999e-06 -2.40837e-06 0.106934)
(6.70976e-05 -6.71809e-05 0.106087)
(-7.24732e-05 7.25082e-05 0.106163)
(-2.32632e-06 -1.37145e-06 0.106934)
(2.34901e-06 -1.42955e-06 0.106934)
(-2.37586e-06 -1.45171e-06 0.106934)
(7.24289e-05 7.24743e-05 0.106163)
(6.72273e-05 6.72159e-05 0.106088)
(-7.2448e-05 -7.24167e-05 0.106164)
(2.41637e-06 1.49826e-06 0.106934)
(-2.44958e-06 1.52941e-06 0.106934)
(2.43708e-06 1.51416e-06 0.106934)
(-2.40178e-06 1.55197e-06 0.106934)
(-6.72498e-05 6.71865e-05 0.106088)
(7.24982e-05 -7.24352e-05 0.106164)
(1.45186e-06 2.36454e-06 0.106935)
(1.5042e-06 -2.41945e-06 0.106934)
(1.48114e-06 2.36653e-06 0.106935)
(1.54671e-06 -2.41912e-06 0.106934)
(-1.5233e-06 -2.41548e-06 0.106934)
(-1.43679e-06 2.35958e-06 0.106935)
(-1.49842e-06 -2.41563e-06 0.106934)
(6.72037e-05 -6.72668e-05 0.106087)
(-7.2413e-05 7.24745e-05 0.106164)
(-2.37349e-06 -1.47437e-06 0.106934)
(2.37606e-06 -1.45609e-06 0.106935)
(-2.33595e-06 -1.48141e-06 0.106935)
(7.24274e-05 7.24342e-05 0.106164)
(6.72345e-05 6.72086e-05 0.106088)
(-7.25009e-05 -7.24752e-05 0.106164)
(2.41466e-06 1.49086e-06 0.106935)
(-2.36901e-06 1.52299e-06 0.106935)
(2.39538e-06 1.4223e-06 0.106935)
(-2.34057e-06 1.45771e-06 0.106935)
(-6.71811e-05 6.71668e-05 0.106088)
(7.2577e-05 -7.25073e-05 0.106165)
(1.45795e-06 2.34158e-06 0.106935)
(1.52089e-06 -2.39854e-06 0.106935)
(1.39323e-06 2.32269e-06 0.106935)
(1.45017e-06 -2.36688e-06 0.106935)
(-1.47176e-06 -2.39224e-06 0.106935)
(-1.3515e-06 2.30844e-06 0.106935)
(-1.40574e-06 -2.36245e-06 0.106935)
(6.72134e-05 -6.72539e-05 0.106088)
(-7.24769e-05 7.25279e-05 0.106164)
(-2.30441e-06 -1.45872e-06 0.106935)
(2.3262e-06 -1.37324e-06 0.106935)
(-2.28019e-06 -1.38208e-06 0.106935)
(7.24964e-05 7.25024e-05 0.106164)
(6.71435e-05 6.71145e-05 0.106089)
(-7.2556e-05 -7.25276e-05 0.106165)
(2.37964e-06 1.40547e-06 0.106935)
(-2.3284e-06 1.43134e-06 0.106935)
(2.35412e-06 1.34223e-06 0.106935)
(-2.32612e-06 1.37449e-06 0.106935)
(-6.70681e-05 6.70534e-05 0.106089)
(7.26e-05 -7.25592e-05 0.106165)
(1.37333e-06 2.3118e-06 0.106936)
(1.42096e-06 -2.34871e-06 0.106935)
(1.31482e-06 2.28686e-06 0.106935)
(1.36921e-06 -2.32829e-06 0.106935)
(-1.38918e-06 -2.33936e-06 0.106935)
(-1.28342e-06 2.27407e-06 0.106936)
(-1.31977e-06 -2.30153e-06 0.106935)
(6.71042e-05 -6.7157e-05 0.106089)
(-7.25389e-05 7.25821e-05 0.106165)
(-2.26242e-06 -1.36112e-06 0.106936)
(2.28519e-06 -1.29308e-06 0.106935)
(-2.24021e-06 -1.27918e-06 0.106935)
(7.25551e-05 7.25835e-05 0.106165)
(6.70219e-05 6.69946e-05 0.106089)
(-7.25709e-05 -7.25345e-05 0.106165)
(2.33207e-06 1.33359e-06 0.106935)
(-2.31641e-06 1.36103e-06 0.106935)
(2.31043e-06 1.2964e-06 0.106935)
(-2.323e-06 1.33014e-06 0.106935)
(-6.69856e-05 6.69414e-05 0.106089)
(7.25719e-05 -7.25544e-05 0.106165)
(1.30255e-06 2.26679e-06 0.106936)
(1.35719e-06 -2.31851e-06 0.106935)
(1.26057e-06 2.25078e-06 0.106935)
(1.32284e-06 -2.31277e-06 0.106935)
(-1.32214e-06 -2.28824e-06 0.106935)
(-1.26366e-06 2.24767e-06 0.106935)
(-1.30806e-06 -2.29814e-06 0.106935)
(6.69849e-05 -6.70437e-05 0.106089)
(-7.25347e-05 7.25701e-05 0.106165)
(-2.22878e-06 -1.27814e-06 0.106936)
(2.2513e-06 -1.25575e-06 0.106935)
(-2.25131e-06 -1.25273e-06 0.106935)
(7.25109e-05 7.25525e-05 0.106165)
(6.69357e-05 6.69183e-05 0.106089)
(-7.24689e-05 -7.24206e-05 0.106165)
(2.31369e-06 1.33377e-06 0.106935)
(-2.33169e-06 1.35742e-06 0.106935)
(2.31872e-06 1.31787e-06 0.106935)
(-2.34497e-06 1.34826e-06 0.106935)
(-6.69383e-05 6.68726e-05 0.106089)
(7.24631e-05 -7.24472e-05 0.106165)
(1.29013e-06 2.25986e-06 0.106936)
(1.34467e-06 -2.31776e-06 0.106935)
(1.2694e-06 2.27161e-06 0.106935)
(1.33096e-06 -2.32104e-06 0.106935)
(-1.34898e-06 -2.30515e-06 0.106935)
(-1.28147e-06 2.26322e-06 0.106935)
(-1.32888e-06 -2.30532e-06 0.106935)
(6.69116e-05 -6.69783e-05 0.106089)
(-7.24406e-05 7.24759e-05 0.106165)
(-2.26135e-06 -1.29122e-06 0.106936)
(2.25375e-06 -1.26304e-06 0.106935)
(-2.27132e-06 -1.26214e-06 0.106935)
(7.24034e-05 7.24565e-05 0.106165)
(6.69014e-05 6.68935e-05 0.106088)
(-7.2342e-05 -7.22954e-05 0.106165)
(2.34402e-06 1.39715e-06 0.106935)
(-2.37387e-06 1.42176e-06 0.106935)
(2.30716e-06 1.29911e-06 0.106935)
(-2.32962e-06 1.33214e-06 0.106935)
(-6.691e-05 6.68452e-05 0.106089)
(7.23376e-05 -7.23128e-05 0.106165)
(1.34282e-06 2.29852e-06 0.106935)
(1.40471e-06 -2.35586e-06 0.106935)
(1.25211e-06 2.2575e-06 0.106935)
(1.31933e-06 -2.31418e-06 0.106934)
(-1.40942e-06 -2.33478e-06 0.106935)
(-1.25444e-06 2.25585e-06 0.106935)
(-1.3036e-06 -2.29732e-06 0.106935)
(6.68745e-05 -6.69395e-05 0.106089)
(-7.22983e-05 7.23397e-05 0.106165)
(-2.29982e-06 -1.3448e-06 0.106935)
(2.25179e-06 -1.24316e-06 0.106935)
(-2.25497e-06 -1.24309e-06 0.106935)
(7.22798e-05 7.23232e-05 0.106165)
(6.68007e-05 6.67899e-05 0.106088)
(-7.21583e-05 -7.2116e-05 0.106165)
(2.38346e-06 1.46197e-06 0.106935)
(-2.40404e-06 1.48591e-06 0.106935)
(2.26122e-06 1.21703e-06 0.106935)
(-2.27851e-06 1.25301e-06 0.106935)
(-6.68035e-05 6.67475e-05 0.106089)
(7.21595e-05 -7.21317e-05 0.106165)
(1.40995e-06 2.33439e-06 0.106935)
(1.47265e-06 -2.39467e-06 0.106935)
(1.17439e-06 2.20767e-06 0.106935)
(1.23988e-06 -2.2635e-06 0.106935)
(-1.46431e-06 -2.37314e-06 0.106935)
(-1.17489e-06 2.20799e-06 0.106935)
(-1.22944e-06 -2.26243e-06 0.106935)
(6.6784e-05 -6.68413e-05 0.106088)
(-7.21223e-05 7.21617e-05 0.106165)
(-2.32793e-06 -1.40858e-06 0.106935)
(2.20186e-06 -1.16543e-06 0.106935)
(-2.21485e-06 -1.17282e-06 0.106935)
(7.20896e-05 7.21287e-05 0.106165)
(6.6612e-05 6.65963e-05 0.106088)
(-7.18668e-05 -7.18261e-05 0.106165)
(2.44096e-06 1.55107e-06 0.106935)
(-2.45722e-06 1.57794e-06 0.106935)
(2.17145e-06 1.06273e-06 0.106935)
(-2.18353e-06 1.0986e-06 0.106935)
(-6.66093e-05 6.65571e-05 0.106089)
(7.18759e-05 -7.18475e-05 0.106165)
(1.50602e-06 2.38819e-06 0.106935)
(1.56351e-06 -2.44947e-06 0.106935)
(1.02086e-06 2.11783e-06 0.106935)
(1.08284e-06 -2.1721e-06 0.106935)
(-1.56304e-06 -2.43976e-06 0.106935)
(-1.02027e-06 2.11521e-06 0.106935)
(-1.06986e-06 -2.15669e-06 0.106935)
(6.65872e-05 -6.66463e-05 0.106088)
(-7.18405e-05 7.18713e-05 0.106165)
(-2.39239e-06 -1.50892e-06 0.106935)
(2.11002e-06 -1.01193e-06 0.106935)
(-2.11038e-06 -1.00599e-06 0.106935)
(7.18134e-05 7.18568e-05 0.106165)
(6.63186e-05 6.6304e-05 0.106089)
(-7.13974e-05 -7.135e-05 0.106164)
(2.55209e-06 1.7163e-06 0.106935)
(-2.56516e-06 1.74141e-06 0.106935)
(1.98233e-06 7.73031e-07 0.106935)
(-1.99809e-06 8.07223e-07 0.106935)
(-6.63105e-05 6.62592e-05 0.106089)
(7.13994e-05 -7.13681e-05 0.106165)
(1.67066e-06 2.50062e-06 0.106935)
(1.72657e-06 -2.55965e-06 0.106935)
(7.28247e-07 1.93181e-06 0.106935)
(7.92339e-07 -1.98407e-06 0.106935)
(-1.72347e-06 -2.53634e-06 0.106935)
(-7.31228e-07 1.93228e-06 0.106936)
(-7.78815e-07 -1.96721e-06 0.106935)
(6.62873e-05 -6.63503e-05 0.106089)
(-7.13618e-05 7.1399e-05 0.106164)
(-2.49022e-06 -1.66445e-06 0.106935)
(1.92442e-06 -7.21589e-07 0.106935)
(-1.91956e-06 -7.14621e-07 0.106935)
(7.13421e-05 7.1382e-05 0.106164)
(6.57845e-05 6.57752e-05 0.106089)
(-7.05732e-05 -7.05283e-05 0.106163)
(2.74755e-06 2.0233e-06 0.106935)
(-2.76603e-06 2.05259e-06 0.106935)
(1.63955e-06 3.15074e-07 0.106935)
(-1.64809e-06 3.42113e-07 0.106935)
(-6.57814e-05 6.57359e-05 0.106089)
(7.05823e-05 -7.05504e-05 0.106164)
(1.97942e-06 2.69923e-06 0.106935)
(2.02774e-06 -2.75039e-06 0.106935)
(2.69329e-07 1.587e-06 0.106936)
(3.36264e-07 -1.64541e-06 0.106935)
(-2.03119e-06 -2.73514e-06 0.106935)
(-2.66777e-07 1.58397e-06 0.106936)
(-3.26273e-07 -1.63136e-06 0.106935)
(6.57602e-05 -6.58135e-05 0.106089)
(-7.05354e-05 7.05738e-05 0.106163)
(-2.68925e-06 -1.97492e-06 0.106935)
(1.58491e-06 -2.64204e-07 0.106936)
(-1.5809e-06 -2.61557e-07 0.106936)
(7.05117e-05 7.05499e-05 0.106163)
(6.48468e-05 6.48371e-05 0.10609)
(-6.90184e-05 -6.89759e-05 0.106161)
(3.12105e-06 2.60449e-06 0.106934)
(-3.1293e-06 2.62685e-06 0.106934)
(1.00511e-06 -5.02851e-07 0.106936)
(-1.01803e-06 -4.69616e-07 0.106936)
(-6.48346e-05 6.47925e-05 0.10609)
(6.90242e-05 -6.89938e-05 0.106161)
(2.56356e-06 3.06912e-06 0.106935)
(2.6173e-06 -3.12937e-06 0.106934)
(-5.49733e-07 9.53191e-07 0.106936)
(-4.81059e-07 -1.00776e-06 0.106936)
(-2.61181e-06 -3.10904e-06 0.106934)
(5.49544e-07 9.56665e-07 0.106937)
(4.90699e-07 -9.94613e-07 0.106936)
(6.48325e-05 -6.4878e-05 0.10609)
(-6.89864e-05 6.90249e-05 0.106161)
(-3.06075e-06 -2.5597e-06 0.106935)
(9.47802e-07 5.61569e-07 0.106936)
(-9.42547e-07 5.53863e-07 0.106936)
(6.89667e-05 6.90024e-05 0.106161)
(6.3071e-05 6.30647e-05 0.106093)
(-6.58788e-05 -6.58415e-05 0.106156)
(3.78379e-06 3.58931e-06 0.106934)
(-3.7923e-06 3.60692e-06 0.106934)
(-1.40397e-07 -1.94004e-06 0.106937)
(1.26367e-07 -1.90992e-06 0.106937)
(-6.30643e-05 6.30249e-05 0.106093)
(6.58894e-05 -6.58636e-05 0.106156)
(3.54945e-06 3.7318e-06 0.106934)
(3.5941e-06 -3.78237e-06 0.106934)
(-1.99273e-06 -1.89322e-07 0.106937)
(-1.91687e-06 1.29004e-07 0.106937)
(-3.58602e-06 -3.76403e-06 0.106934)
(1.98855e-06 -1.88348e-07 0.106937)
(1.91997e-06 1.36211e-07 0.106937)
(6.30537e-05 -6.30938e-05 0.106093)
(-6.58507e-05 6.58853e-05 0.106156)
(-3.71658e-06 -3.5382e-06 0.106934)
(-1.90075e-07 1.99477e-06 0.106937)
(1.88596e-07 1.98543e-06 0.106937)
(6.58211e-05 6.58595e-05 0.106156)
(5.95244e-05 5.95247e-05 0.106099)
(-5.894e-05 -5.89022e-05 0.106145)
(4.95108e-06 5.29587e-06 0.106934)
(-4.96072e-06 5.31345e-06 0.106934)
(-2.12459e-06 -4.4313e-06 0.106938)
(2.11306e-06 -4.41298e-06 0.106938)
(-5.95164e-05 5.94832e-05 0.106099)
(5.89545e-05 -5.89267e-05 0.106146)
(5.2575e-06 4.9012e-06 0.106934)
(5.30008e-06 -4.94928e-06 0.106934)
(-4.49684e-06 -2.15732e-06 0.106939)
(-4.42822e-06 2.1264e-06 0.106938)
(-5.30207e-06 -4.93974e-06 0.106934)
(4.48376e-06 -2.16201e-06 0.106939)
(4.42778e-06 2.13285e-06 0.106938)
(5.95157e-05 -5.95477e-05 0.106099)
(-5.89309e-05 5.89512e-05 0.106145)
(-4.89746e-06 -5.25615e-06 0.106934)
(-2.1772e-06 4.50348e-06 0.106938)
(2.17594e-06 4.49494e-06 0.106938)
(5.88972e-05 5.89365e-05 0.106145)
(5.17328e-05 5.17496e-05 0.106111)
(-4.32282e-05 -4.31657e-05 0.106127)
(7.0092e-06 8.24551e-06 0.106934)
(-7.01806e-06 8.28134e-06 0.106934)
(-6.26667e-06 -9.6261e-06 0.106939)
(6.24201e-06 -9.61008e-06 0.106939)
(-5.17181e-05 5.17112e-05 0.106111)
(4.31994e-05 -4.31922e-05 0.106127)
(8.20487e-06 6.9686e-06 0.106934)
(8.25367e-06 -7.00173e-06 0.106934)
(-9.70335e-06 -6.27278e-06 0.10694)
(-9.6342e-06 6.25343e-06 0.106939)
(-8.26447e-06 -6.98556e-06 0.106934)
(9.67531e-06 -6.26042e-06 0.10694)
(9.62227e-06 6.26138e-06 0.106939)
(5.173e-05 -5.17518e-05 0.106111)
(-4.32034e-05 4.3188e-05 0.106127)
(-6.94726e-06 -8.21025e-06 0.106934)
(-6.29014e-06 9.6843e-06 0.10694)
(6.2799e-06 9.6841e-06 0.10694)
(4.31609e-05 4.31892e-05 0.106127)
(3.23777e-05 3.24614e-05 0.106131)
(-3.91229e-05 -3.89351e-05 0.106127)
(9.04396e-06 1.07741e-05 0.106934)
(-9.07443e-06 1.07878e-05 0.106934)
(-3.05741e-05 -4.86492e-05 0.106945)
(3.05586e-05 -4.86685e-05 0.106945)
(-3.24116e-05 3.2435e-05 0.106131)
(3.91208e-05 -3.89557e-05 0.106127)
(1.06596e-05 9.03727e-06 0.106934)
(1.07153e-05 -9.04591e-06 0.106934)
(-4.88723e-05 -3.05017e-05 0.106946)
(-4.87839e-05 3.05742e-05 0.106945)
(-1.07394e-05 -9.03872e-06 0.106934)
(4.88391e-05 -3.04964e-05 0.106946)
(4.87527e-05 3.0575e-05 0.106945)
(3.24087e-05 -3.24434e-05 0.106131)
(-3.9036e-05 3.91062e-05 0.106127)
(-9.02788e-06 -1.07159e-05 0.106934)
(-3.05782e-05 4.88338e-05 0.106946)
(3.05768e-05 4.88497e-05 0.106946)
(3.90106e-05 3.90994e-05 0.106127)
(-3.46517e-05 -3.44571e-05 0.106218)
(-2.78183e-05 -4.08249e-05 0.106957)
(2.77984e-05 -4.08374e-05 0.106957)
(3.46361e-05 -3.44754e-05 0.106218)
(-4.10236e-05 -2.77239e-05 0.106958)
(-4.09633e-05 2.78111e-05 0.106957)
(4.04587e-05 -4.03278e-05 0.107557)
(-4.04136e-05 4.04722e-05 0.107557)
(4.04361e-05 4.04844e-05 0.107557)
(4.0946e-05 2.78174e-05 0.106957)
(-3.45777e-05 3.46222e-05 0.106218)
(2.78098e-05 4.10144e-05 0.106958)
(-1.89507e-06 -1.93853e-06 0.107568)
(1.90626e-06 -1.88241e-06 0.107568)
(-1.90595e-06 1.86954e-06 0.107568)
(1.90401e-06 1.876e-06 0.107568)
(2.85911e-08 -1.05032e-05 0.0958831)
(3.24903e-07 9.31375e-06 0.0849277)
(-1.64097e-07 9.92006e-06 0.0958185)
(-1.92679e-06 -8.26777e-06 0.0849942)
(-2.57958e-06 4.49397e-06 0.0731336)
(2.98135e-06 -3.98597e-06 0.0731952)
(-1.05807e-05 4.05892e-08 0.0958815)
(9.2028e-06 3.06532e-07 0.0849265)
(9.97048e-06 -1.34481e-07 0.0958189)
(-8.28468e-06 -1.91125e-06 0.0849947)
(1.90489e-06 -1.89252e-06 0.107568)
(-1.90832e-06 1.89972e-06 0.107568)
(1.89924e-06 1.89008e-06 0.107568)
(-1.92453e-06 -1.91944e-06 0.107568)
(1.92274e-06 -1.90998e-06 0.107568)
(-1.9093e-06 1.91394e-06 0.107568)
(1.91454e-06 1.91387e-06 0.107568)
(2.3055e-05 3.60301e-07 0.1033)
(-1.90717e-05 4.65783e-06 0.0971026)
(-1.74185e-06 -4.83428e-07 0.107352)
(-1.33441e-06 2.28563e-06 0.106935)
(-2.33381e-05 -3.08731e-07 0.103227)
(1.7233e-05 -5.93799e-06 0.0972138)
(-1.7324e-06 -4.7609e-07 0.107352)
(4.38313e-06 -2.56006e-06 0.0731296)
(-3.90018e-06 2.88166e-06 0.0731962)
(3.55837e-07 2.30419e-05 0.1033)
(-4.66607e-07 -1.69242e-06 0.107351)
(4.6783e-06 -1.91194e-05 0.0971025)
(2.28529e-06 -1.33702e-06 0.106935)
(-3.11848e-07 -2.33111e-05 0.103226)
(-4.61534e-07 -1.70328e-06 0.107351)
(-5.99312e-06 1.72847e-05 0.0972118)
(-6.05182e-06 -5.88053e-06 0.0908805)
(-5.87128e-06 -6.04815e-06 0.090879)
(7.2528e-05 7.25672e-05 0.106164)
(4.79381e-06 5.69085e-06 0.0909503)
(5.70486e-06 4.80262e-06 0.0909479)
(3.8712e-08 -1.05428e-05 0.0958834)
(3.24727e-07 9.27065e-06 0.0849274)
(-1.62185e-07 9.92784e-06 0.0958186)
(-1.93866e-06 -8.30698e-06 0.084994)
(-2.5777e-06 4.47479e-06 0.0731327)
(2.97002e-06 -4.01273e-06 0.0731944)
(-1.06107e-05 3.78913e-08 0.0958818)
(9.2035e-06 3.0307e-07 0.0849264)
(9.98773e-06 -1.41657e-07 0.095819)
(-8.29752e-06 -1.9037e-06 0.0849945)
(1.92985e-06 -1.9174e-06 0.107568)
(-1.91442e-06 1.92011e-06 0.107568)
(1.92439e-06 1.92366e-06 0.107568)
(-1.93936e-06 -1.93546e-06 0.107568)
(1.93978e-06 -1.92943e-06 0.107568)
(-1.92503e-06 1.93957e-06 0.107568)
(1.92304e-06 1.92921e-06 0.107568)
(2.30819e-05 3.24759e-07 0.103301)