/*--------------------------------*- C++ -*----------------------------------*\
| =========                 |                                                 |
| \\      /  F ield         | OpenFOAM: The Open Source CFD Toolbox           |
|  \\    /   O peration     | Version:  v1912                                 |
|   \\  /    A nd           | Website:  www.openfoam.com                      |
|    \\/     M anipulation  |                                                 |
\*---------------------------------------------------------------------------*/
FoamFile
{
    version     2.0;
    format      ascii;
    class       volScalarField;
    location    "100";
    object      epsilon;
}
// * * * * * * * * * * * * * * * * * * * * * * * * * * * * * * * * * * * * * //

dimensions      [0 2 -3 0 0 0 0];


internalField   nonuniform List<scalar> 
171728
(
4.95565e-07
4.97334e-07
4.97334e-07
4.9957e-07
4.45573e-07
4.5375e-07
4.53752e-07
4.63724e-07
4.03752e-07
4.18522e-07
4.18526e-07
4.39419e-07
3.68363e-07
3.88551e-07
3.88557e-07
4.17659e-07
3.38014e-07
3.62095e-07
3.62102e-07
3.96065e-07
3.11645e-07
3.38261e-07
3.3827e-07
3.74559e-07
2.8847e-07
3.16626e-07
3.16635e-07
3.53685e-07
2.6792e-07
2.97014e-07
2.97023e-07
3.34124e-07
2.49577e-07
2.79369e-07
2.79378e-07
3.16465e-07
2.33135e-07
2.63687e-07
2.63696e-07
3.01149e-07
2.18365e-07
2.49972e-07
2.49981e-07
2.88488e-07
2.05092e-07
2.38226e-07
2.38236e-07
2.787e-07
1.93175e-07
2.2845e-07
2.28461e-07
2.71891e-07
1.82504e-07
2.20651e-07
2.20663e-07
2.68187e-07
1.72988e-07
2.14836e-07
2.1485e-07
2.67677e-07
1.64553e-07
2.11021e-07
2.11038e-07
2.70532e-07
1.57139e-07
2.09203e-07
2.09222e-07
2.76732e-07
1.50678e-07
2.09378e-07
2.09402e-07
2.86278e-07
1.45146e-07
2.11559e-07
2.11586e-07
2.99012e-07
1.40396e-07
2.15451e-07
2.15482e-07
3.14421e-07
1.36285e-07
2.20259e-07
2.20293e-07
3.30606e-07
1.32484e-07
2.24254e-07
2.24288e-07
3.43646e-07
1.27985e-07
2.24871e-07
2.24907e-07
3.49328e-07
1.23777e-07
2.23149e-07
2.23193e-07
3.4959e-07
1.21595e-07
2.22807e-07
2.22857e-07
3.49721e-07
1.20989e-07
2.23154e-07
2.23205e-07
3.5051e-07
1.20963e-07
2.23503e-07
2.23552e-07
3.51012e-07
1.21011e-07
2.23679e-07
2.23727e-07
3.5125e-07
1.21049e-07
2.23769e-07
2.23817e-07
3.51376e-07
1.21074e-07
2.23818e-07
2.23871e-07
3.5144e-07
5.06418e-07
5.05584e-07
5.05583e-07
5.06417e-07
5.05583e-07
5.05583e-07
5.09648e-07
5.09648e-07
5.09648e-07
5.09648e-07
5.05585e-07
5.05584e-07
5.06418e-07
5.05585e-07
5.05583e-07
5.06418e-07
4.9957e-07
4.67246e-07
4.97335e-07
4.97339e-07
4.63735e-07
4.63743e-07
4.9957e-07
4.67243e-07
4.97339e-07
4.9734e-07
4.63739e-07
4.63745e-07
4.97336e-07
4.63731e-07
4.63736e-07
4.9957e-07
4.67249e-07
4.97338e-07
4.63732e-07
4.6374e-07
4.67249e-07
4.63724e-07
4.41421e-07
4.53755e-07
4.53763e-07
4.2675e-07
4.26758e-07
4.63722e-07
4.41415e-07
4.53759e-07
4.53767e-07
4.26751e-07
4.26763e-07
4.53757e-07
4.26741e-07
4.26752e-07
4.63726e-07
4.41426e-07
4.53759e-07
4.26746e-07
4.26753e-07
4.41424e-07
4.39415e-07
4.19274e-07
4.18531e-07
4.18539e-07
3.95678e-07
3.95684e-07
4.39413e-07
4.19266e-07
4.18531e-07
4.18544e-07
3.95674e-07
3.95691e-07
4.18534e-07
3.95665e-07
3.95681e-07
4.39422e-07
4.1928e-07
4.18532e-07
3.95671e-07
3.95675e-07
4.19278e-07
4.17654e-07
3.97627e-07
3.88565e-07
3.88571e-07
3.68455e-07
3.6846e-07
4.17648e-07
3.97618e-07
3.8856e-07
3.88578e-07
3.68446e-07
3.68467e-07
3.88569e-07
3.68438e-07
3.68458e-07
4.1766e-07
3.97633e-07
3.88561e-07
3.68446e-07
3.68447e-07
3.97632e-07
3.9606e-07
3.76061e-07
3.62112e-07
3.62117e-07
3.44022e-07
3.44025e-07
3.96053e-07
3.76052e-07
3.62102e-07
3.62124e-07
3.44009e-07
3.44033e-07
3.62115e-07
3.44003e-07
3.44025e-07
3.96067e-07
3.76067e-07
3.62103e-07
3.44011e-07
3.4401e-07
3.76066e-07
3.74554e-07
3.55084e-07
3.38281e-07
3.38284e-07
3.21863e-07
3.21865e-07
3.74546e-07
3.55074e-07
3.38267e-07
3.38292e-07
3.21847e-07
3.21873e-07
3.38284e-07
3.21842e-07
3.21866e-07
3.7456e-07
3.5509e-07
3.38269e-07
3.21851e-07
3.21848e-07
3.55089e-07
3.5368e-07
3.35368e-07
3.16648e-07
3.1665e-07
3.01755e-07
3.01756e-07
3.53672e-07
3.35358e-07
3.16631e-07
3.16658e-07
3.01736e-07
3.01763e-07
3.16651e-07
3.01732e-07
3.01757e-07
3.53686e-07
3.35374e-07
3.16633e-07
3.01741e-07
3.01737e-07
3.35373e-07
3.34118e-07
3.17511e-07
2.97037e-07
2.97038e-07
2.83621e-07
2.83622e-07
3.3411e-07
3.17501e-07
2.97018e-07
2.97045e-07
2.83601e-07
2.83629e-07
2.97039e-07
2.83597e-07
2.83623e-07
3.34124e-07
3.17517e-07
2.97019e-07
2.83606e-07
2.83602e-07
3.17516e-07
3.16459e-07
3.01959e-07
2.79393e-07
2.79394e-07
2.67448e-07
2.67449e-07
3.16451e-07
3.01949e-07
2.79373e-07
2.79401e-07
2.67427e-07
2.67456e-07
2.79395e-07
2.67423e-07
2.67449e-07
3.16466e-07
3.01966e-07
2.79374e-07
2.67432e-07
2.67427e-07
3.01965e-07
3.01142e-07
2.89032e-07
2.63712e-07
2.63712e-07
2.53243e-07
2.53243e-07
3.01134e-07
2.89021e-07
2.6369e-07
2.63719e-07
2.5322e-07
2.5325e-07
2.63713e-07
2.53216e-07
2.53243e-07
3.01149e-07
2.89039e-07
2.63691e-07
2.53225e-07
2.5322e-07
2.89038e-07
2.88481e-07
2.78951e-07
2.49998e-07
2.49999e-07
2.41007e-07
2.41008e-07
2.88473e-07
2.78938e-07
2.49975e-07
2.50006e-07
2.40983e-07
2.41015e-07
2.49999e-07
2.40978e-07
2.41007e-07
2.88489e-07
2.78958e-07
2.49976e-07
2.40988e-07
2.40983e-07
2.78957e-07
2.78692e-07
2.71841e-07
2.38254e-07
2.38256e-07
2.3074e-07
2.30741e-07
2.78683e-07
2.71828e-07
2.38231e-07
2.38263e-07
2.30715e-07
2.30749e-07
2.38255e-07
2.30708e-07
2.30739e-07
2.78701e-07
2.71849e-07
2.38231e-07
2.30719e-07
2.30715e-07
2.71848e-07
2.71883e-07
2.67883e-07
2.2848e-07
2.28483e-07
2.2245e-07
2.22452e-07
2.71872e-07
2.6787e-07
2.28456e-07
2.2849e-07
2.22423e-07
2.2246e-07
2.28481e-07
2.22414e-07
2.22448e-07
2.71892e-07
2.67893e-07
2.28456e-07
2.22426e-07
2.22422e-07
2.67892e-07
2.68177e-07
2.6701e-07
2.20683e-07
2.20688e-07
2.1614e-07
2.16145e-07
2.68167e-07
2.66996e-07
2.20659e-07
2.20697e-07
2.16113e-07
2.16153e-07
2.20685e-07
2.16101e-07
2.16138e-07
2.68188e-07
2.67022e-07
2.20658e-07
2.16114e-07
2.16111e-07
2.67021e-07
2.67667e-07
2.69191e-07
2.14874e-07
2.1488e-07
2.11822e-07
2.11831e-07
2.67653e-07
2.69173e-07
2.14848e-07
2.14889e-07
2.11796e-07
2.1184e-07
2.14873e-07
2.11778e-07
2.11819e-07
2.67677e-07
2.69204e-07
2.14846e-07
2.11795e-07
2.11791e-07
2.69202e-07
2.70522e-07
2.74698e-07
2.11066e-07
2.11074e-07
2.09503e-07
2.09512e-07
2.70505e-07
2.74676e-07
2.11039e-07
2.11084e-07
2.09476e-07
2.09525e-07
2.11062e-07
2.09451e-07
2.09497e-07
2.70534e-07
2.74714e-07
2.11034e-07
2.09471e-07
2.09468e-07
2.7471e-07
2.76722e-07
2.83556e-07
2.09255e-07
2.09264e-07
2.09221e-07
2.0923e-07
2.767e-07
2.8353e-07
2.09227e-07
2.09276e-07
2.09193e-07
2.09247e-07
2.09249e-07
2.09163e-07
2.09214e-07
2.76735e-07
2.83573e-07
2.0922e-07
2.09186e-07
2.09184e-07
2.83568e-07
2.86268e-07
2.95654e-07
2.09437e-07
2.09447e-07
2.10894e-07
2.109e-07
2.8624e-07
2.95624e-07
2.09409e-07
2.09465e-07
2.10864e-07
2.10923e-07
2.09429e-07
2.10825e-07
2.10883e-07
2.86282e-07
2.95674e-07
2.094e-07
2.10851e-07
2.10853e-07
2.95668e-07
2.99e-07
3.10596e-07
2.11626e-07
2.11635e-07
2.14442e-07
2.1445e-07
2.98968e-07
3.10562e-07
2.11597e-07
2.11658e-07
2.1441e-07
2.14476e-07
2.11615e-07
2.14362e-07
2.14427e-07
2.99017e-07
3.10618e-07
2.11585e-07
2.14393e-07
2.14397e-07
3.10614e-07
3.14403e-07
3.26729e-07
2.15525e-07
2.15538e-07
2.19097e-07
2.19118e-07
3.14369e-07
3.26692e-07
2.15495e-07
2.15562e-07
2.19068e-07
2.19142e-07
2.15513e-07
2.19018e-07
2.19088e-07
3.14423e-07
3.26753e-07
2.15482e-07
2.19051e-07
2.19057e-07
3.26752e-07
3.30578e-07
3.40649e-07
2.20334e-07
2.20358e-07
2.23594e-07
2.23625e-07
3.30542e-07
3.40615e-07
2.20306e-07
2.20381e-07
2.23565e-07
2.23648e-07
2.20326e-07
2.23517e-07
2.23588e-07
3.30602e-07
3.40681e-07
2.20296e-07
2.23551e-07
2.23556e-07
3.40677e-07
3.43601e-07
3.47788e-07
2.24326e-07
2.24359e-07
2.25044e-07
2.25081e-07
3.43569e-07
3.47758e-07
2.24297e-07
2.24384e-07
2.25016e-07
2.25108e-07
2.24321e-07
2.24971e-07
2.25043e-07
3.43632e-07
3.47832e-07
2.24288e-07
2.25006e-07
2.25007e-07
3.47817e-07
3.49265e-07
3.48596e-07
2.24938e-07
2.24975e-07
2.23575e-07
2.23615e-07
3.49235e-07
3.48548e-07
2.2491e-07
2.25001e-07
2.2355e-07
2.23633e-07
2.24937e-07
2.23492e-07
2.23577e-07
3.49303e-07
3.48616e-07
2.249e-07
2.23533e-07
2.23541e-07
3.48611e-07
3.49541e-07
3.48444e-07
2.23225e-07
2.23267e-07
2.22889e-07
2.22936e-07
3.49495e-07
3.48395e-07
2.23201e-07
2.23283e-07
2.22866e-07
2.22946e-07
2.23229e-07
2.22803e-07
2.22896e-07
3.49558e-07
3.48469e-07
2.23196e-07
2.22852e-07
2.22868e-07
3.48474e-07
3.49649e-07
3.49307e-07
2.22888e-07
2.22936e-07
2.23108e-07
2.23162e-07
3.49601e-07
3.49257e-07
2.22865e-07
2.22945e-07
2.23087e-07
2.23164e-07
2.22895e-07
2.23022e-07
2.23116e-07
3.49668e-07
3.49323e-07
2.22867e-07
2.23073e-07
2.23092e-07
3.49324e-07
3.50466e-07
3.49856e-07
2.23224e-07
2.23277e-07
2.23511e-07
2.23566e-07
3.50417e-07
3.49803e-07
2.23203e-07
2.23279e-07
2.23491e-07
2.23565e-07
2.23232e-07
2.23427e-07
2.23519e-07
3.50477e-07
3.49863e-07
2.23209e-07
2.23476e-07
2.23497e-07
3.49869e-07
3.50976e-07
3.50113e-07
2.23572e-07
2.23627e-07
2.2372e-07
2.23777e-07
3.50924e-07
3.50062e-07
2.23552e-07
2.23626e-07
2.23703e-07
2.23777e-07
2.23582e-07
2.23641e-07
2.23733e-07
3.50978e-07
3.50122e-07
2.2356e-07
2.2369e-07
2.23711e-07
3.5013e-07
3.51209e-07
3.50244e-07
2.23748e-07
2.23805e-07
2.23823e-07
2.23884e-07
3.51159e-07
3.50199e-07
2.23729e-07
2.23803e-07
2.23808e-07
2.23884e-07
2.2376e-07
2.23751e-07
2.2384e-07
3.51214e-07
3.50259e-07
2.23738e-07
2.23799e-07
2.2382e-07
3.50266e-07
3.51329e-07
3.50313e-07
2.23837e-07
2.23899e-07
2.23885e-07
2.2395e-07
3.51286e-07
3.50269e-07
2.2382e-07
2.23896e-07
2.23872e-07
2.23944e-07
2.23853e-07
2.23811e-07
2.239e-07
3.5134e-07
3.50329e-07
2.23833e-07
2.23861e-07
2.2388e-07
3.50334e-07
3.51391e-07
2.23884e-07
2.23949e-07
3.51352e-07
2.2387e-07
2.23951e-07
2.23907e-07
3.51405e-07
2.23887e-07
5.35663e-07
5.35601e-07
5.35655e-07
5.35655e-07
5.34573e-07
5.35516e-07
5.33635e-07
5.35654e-07
5.34573e-07
5.35516e-07
5.35654e-07
5.33635e-07
5.35254e-07
5.35988e-07
5.35988e-07
1.10845e-06
3.87959e-06
9.32856e-07
4.60519e-06
1.26056e-05
1.6603e-05
1.10858e-06
3.87983e-06
9.32886e-07
4.60555e-06
4.95565e-07
4.95565e-07
4.95565e-07
4.57233e-07
4.57233e-07
4.57233e-07
4.57233e-07
5.43212e-07
1.22287e-06
4.95564e-07
4.85541e-07
5.25283e-07
1.21059e-06
4.82303e-07
1.26072e-05
1.66055e-05
5.43231e-07
4.95564e-07
1.22284e-06
4.85542e-07
5.25262e-07
4.82304e-07
1.2106e-06
2.52022e-06
2.52091e-06
4.84192e-07
2.38083e-06
2.38121e-06
1.43195e-06
5.59211e-06
1.33019e-06
6.13483e-06
2.12863e-05
2.31107e-05
1.43236e-06
5.59277e-06
1.33023e-06
6.13548e-06
4.45573e-07
4.45574e-07
4.45574e-07
4.13543e-07
4.13542e-07
4.13544e-07
4.13543e-07
5.87312e-07
1.19312e-06
4.46441e-07
4.44305e-07
5.73985e-07
1.2021e-06
4.35698e-07
2.12886e-05
2.31143e-05
5.8733e-07
4.46442e-07
1.19314e-06
4.44308e-07
5.73994e-07
4.35699e-07
1.20219e-06
2.31502e-06
2.31553e-06
4.53487e-07
2.35742e-06
2.35788e-06
1.66526e-06
6.91691e-06
1.59762e-06
7.31887e-06
2.46417e-05
2.49374e-05
1.66536e-06
6.91773e-06
1.59752e-06
7.31981e-06
4.03752e-07
4.03754e-07
4.03753e-07
3.7669e-07
3.76689e-07
3.76692e-07
3.76691e-07
6.15966e-07
1.23989e-06
4.06557e-07
4.10624e-07
6.08735e-07
1.26242e-06
3.97741e-07
2.46449e-05
2.49409e-05
6.15983e-07
4.06558e-07
1.23998e-06
4.10628e-07
6.08751e-07
3.97744e-07
1.26258e-06
2.47825e-06
2.47873e-06
4.30172e-07
2.53668e-06
2.53716e-06
1.81485e-06
7.84583e-06
1.77471e-06
8.09877e-06
2.47373e-05
2.44287e-05
1.815e-06
7.84679e-06
1.77471e-06
8.10007e-06
3.68363e-07
3.68365e-07
3.68365e-07
3.45193e-07
3.45192e-07
3.45195e-07
3.45194e-07
6.26811e-07
1.30981e-06
3.73494e-07
3.81653e-07
6.25365e-07
1.33037e-06
3.66045e-07
2.47396e-05
2.44323e-05
6.26824e-07
3.73495e-07
1.3099e-06
3.8166e-07
6.25378e-07
3.66049e-07
1.33054e-06
2.63858e-06
2.63907e-06
4.08457e-07
2.68222e-06
2.68272e-06
1.89553e-06
8.39574e-06
1.87585e-06
8.52969e-06
2.3692e-05
2.32623e-05
1.8957e-06
8.39689e-06
1.87587e-06
8.53114e-06
3.38014e-07
3.38017e-07
3.38016e-07
3.17911e-07
3.1791e-07
3.17914e-07
3.17913e-07
6.22694e-07
1.36897e-06
3.45259e-07
3.55913e-07
6.2601e-07
1.38407e-06
3.38785e-07
2.36938e-05
2.32654e-05
6.22708e-07
3.45261e-07
1.36904e-06
3.55921e-07
6.26022e-07
3.38789e-07
1.38424e-06
2.76563e-06
2.76616e-06
3.86816e-07
2.80705e-06
2.80759e-06
1.93258e-06
8.664e-06
1.9245e-06
8.71994e-06
2.25004e-05
2.21166e-05
1.93276e-06
8.66535e-06
1.92453e-06
8.72135e-06
3.11644e-07
3.11647e-07
3.11646e-07
2.93999e-07
2.93998e-07
2.94002e-07
2.94e-07
6.09494e-07
1.41333e-06
3.20515e-07
3.32656e-07
6.15982e-07
1.42498e-06
3.1477e-07
2.25017e-05
2.21194e-05
6.09508e-07
3.20517e-07
1.41341e-06
3.32665e-07
6.15994e-07
3.14773e-07
1.42515e-06
2.89627e-06
2.89686e-06
3.65462e-07
2.9445e-06
2.94512e-06
1.95059e-06
8.76111e-06
1.94632e-06
8.77284e-06
2.14755e-05
2.11745e-05
1.95077e-06
8.76254e-06
1.94635e-06
8.77426e-06
2.88469e-07
2.88473e-07
2.88472e-07
2.72837e-07
2.72836e-07
2.7284e-07
2.72838e-07
5.92473e-07
1.45052e-06
2.98436e-07
3.11537e-07
5.9998e-07
1.46194e-06
2.9327e-07
2.14766e-05
2.11771e-05
5.92488e-07
2.98438e-07
1.45059e-06
3.11546e-07
5.99993e-07
2.93273e-07
1.46211e-06
3.04945e-06
3.05014e-06
3.45033e-07
3.10657e-06
3.10733e-06
1.96822e-06
8.77121e-06
1.96223e-06
8.76621e-06
2.06719e-05
2.04493e-05
1.96839e-06
8.77264e-06
1.96227e-06
8.76763e-06
2.67919e-07
2.67923e-07
2.67921e-07
2.53974e-07
2.53973e-07
2.53977e-07
2.53975e-07
5.76056e-07
1.48989e-06
2.78529e-07
2.92419e-07
5.82882e-07
1.50383e-06
2.73855e-07
2.06731e-05
2.04516e-05
5.76072e-07
2.7853e-07
1.48996e-06
2.92428e-07
5.82897e-07
2.73858e-07
1.50399e-06
3.22608e-06
3.22689e-06
3.26181e-07
3.29163e-06
3.29258e-06
1.99805e-06
8.75249e-06
1.98689e-06
8.74647e-06
2.00691e-05
1.99077e-05
1.9982e-06
8.75396e-06
1.98691e-06
8.74794e-06
2.49576e-07
2.4958e-07
2.49578e-07
2.37081e-07
2.3708e-07
2.37084e-07
2.37082e-07
5.63506e-07
1.53841e-06
2.60505e-07
2.75265e-07
5.68435e-07
1.55639e-06
2.56271e-07
2.00709e-05
1.99094e-05
5.63522e-07
2.60506e-07
1.53848e-06
2.75274e-07
5.68452e-07
2.56275e-07
1.55655e-06
3.42124e-06
3.42219e-06
3.0943e-07
3.49239e-06
3.49354e-06
2.04763e-06
8.73708e-06
2.02918e-06
8.73495e-06
1.96295e-05
1.95138e-05
2.04778e-06
8.73859e-06
2.0292e-06
8.73649e-06
2.33134e-07
2.33138e-07
2.33136e-07
2.21912e-07
2.2191e-07
2.21914e-07
2.21913e-07
5.57114e-07
1.59987e-06
2.4419e-07
2.60074e-07
5.59251e-07
1.62259e-06
2.40365e-07
1.96313e-05
1.95156e-05
5.57133e-07
2.44191e-07
1.59994e-06
2.60083e-07
5.59269e-07
2.40369e-07
1.62276e-06
3.62715e-06
3.62826e-06
2.95157e-07
3.70084e-06
3.7022e-06
2.12139e-06
8.73457e-06
2.09451e-06
8.73731e-06
1.93152e-05
1.92341e-05
2.12155e-06
8.7362e-06
2.09455e-06
8.73897e-06
2.18364e-07
2.18368e-07
2.18367e-07
2.08278e-07
2.08277e-07
2.08281e-07
2.0828e-07
5.5825e-07
1.67555e-06
2.29473e-07
2.46851e-07
5.57374e-07
1.70294e-06
2.26034e-07
1.9317e-05
1.92359e-05
5.58269e-07
2.29474e-07
1.67563e-06
2.46861e-07
5.57393e-07
2.26038e-07
1.70312e-06
3.8355e-06
3.83677e-06
2.83634e-07
3.90883e-06
3.91039e-06
2.22102e-06
8.74393e-06
2.18527e-06
8.75085e-06
1.90946e-05
1.90387e-05
2.2212e-06
8.74568e-06
2.18522e-06
8.75259e-06
2.05091e-07
2.05095e-07
2.05093e-07
1.96034e-07
1.96033e-07
1.96037e-07
1.96035e-07
5.67632e-07
1.7647e-06
2.16276e-07
2.35597e-07
5.63776e-07
1.79619e-06
2.13207e-07
1.90964e-05
1.90404e-05
5.67654e-07
2.16277e-07
1.7648e-06
2.35607e-07
5.63797e-07
2.13211e-07
1.79638e-06
4.03853e-06
4.03995e-06
2.75014e-07
4.10895e-06
4.11069e-06
2.34597e-06
8.76166e-06
2.30179e-06
8.77042e-06
1.89413e-05
1.89028e-05
2.34618e-06
8.76348e-06
2.30182e-06
8.77223e-06
1.93174e-07
1.93179e-07
1.93177e-07
1.85061e-07
1.8506e-07
1.85064e-07
1.85062e-07
5.86615e-07
1.86524e-06
2.04537e-07
2.26314e-07
5.79477e-07
1.89993e-06
2.01824e-07
1.8943e-05
1.89045e-05
5.86642e-07
2.04538e-07
1.86535e-06
2.26325e-07
5.79506e-07
2.01828e-07
1.90013e-06
4.22972e-06
4.23128e-06
2.69486e-07
4.29497e-06
4.29686e-06
2.49358e-06
8.78243e-06
2.4418e-06
8.7913e-06
1.8834e-05
1.88071e-05
2.49422e-06
8.78431e-06
2.44151e-06
8.79316e-06
1.82503e-07
1.82508e-07
1.82506e-07
1.75263e-07
1.75262e-07
1.75266e-07
1.75264e-07
6.15719e-07
1.9743e-06
1.94205e-07
2.1901e-07
6.05173e-07
2.01112e-06
1.91836e-07
1.88357e-05
1.88088e-05
6.15752e-07
1.94205e-07
1.97442e-06
2.19022e-07
6.05207e-07
1.9184e-07
2.01133e-06
4.40399e-06
4.40566e-06
2.67081e-07
4.46246e-06
4.46445e-06
2.65838e-06
8.80283e-06
2.60028e-06
8.81104e-06
1.87565e-05
1.87367e-05
2.65902e-06
8.80474e-06
2.59998e-06
8.81292e-06
1.72987e-07
1.72992e-07
1.7299e-07
1.66564e-07
1.66563e-07
1.66568e-07
1.66565e-07
6.55229e-07
2.08853e-06
1.85236e-07
2.13692e-07
6.41216e-07
2.12632e-06
1.83202e-07
1.87583e-05
1.87385e-05
6.55265e-07
1.85236e-07
2.08866e-06
2.13707e-07
6.41253e-07
1.83206e-07
2.12653e-06
4.55821e-06
4.55996e-06
2.677e-07
4.60904e-06
4.61111e-06
2.83272e-06
8.82153e-06
2.77131e-06
8.82897e-06
1.86974e-05
1.86818e-05
2.83335e-06
8.82346e-06
2.771e-06
8.83087e-06
1.64552e-07
1.64557e-07
1.64555e-07
1.58898e-07
1.58897e-07
1.58902e-07
1.58899e-07
7.05084e-07
2.20449e-06
1.77594e-07
2.10361e-07
6.87679e-07
2.24213e-06
1.75885e-07
1.8699e-05
1.86834e-05
7.05123e-07
1.77594e-07
2.20461e-06
2.1038e-07
6.87719e-07
1.75889e-07
2.24234e-06
4.69132e-06
4.69312e-06
2.71538e-07
4.73434e-06
4.73644e-06
3.00836e-06
8.83848e-06
2.94702e-06
8.84524e-06
1.86485e-05
1.86352e-05
3.00902e-06
8.84041e-06
2.94673e-06
8.84714e-06
1.57138e-07
1.57143e-07
1.5714e-07
1.52209e-07
1.52207e-07
1.52213e-07
1.52209e-07
7.64759e-07
2.31896e-06
1.71253e-07
2.09047e-07
7.44198e-07
2.35547e-06
1.69867e-07
1.86501e-05
1.86368e-05
7.64804e-07
1.71253e-07
2.31908e-06
2.09068e-07
7.44242e-07
1.69872e-07
2.35569e-06
4.80384e-06
4.80565e-06
2.78721e-07
4.83957e-06
4.8417e-06
3.17697e-06
8.85376e-06
3.11891e-06
8.86003e-06
1.86059e-05
1.85943e-05
3.17762e-06
8.85569e-06
3.11863e-06
8.86192e-06
1.50676e-07
1.50682e-07
1.50679e-07
1.46443e-07
1.4644e-07
1.46447e-07
1.46443e-07
8.33108e-07
2.42901e-06
1.66181e-07
2.09733e-07
8.09862e-07
2.46335e-06
1.65107e-07
1.86075e-05
1.85961e-05
8.33155e-07
1.66181e-07
2.42914e-06
2.09757e-07
8.09909e-07
1.65112e-07
2.46358e-06
4.89727e-06
4.89909e-06
2.89219e-07
4.92588e-06
4.928e-06
3.32945e-06
8.86771e-06
3.27781e-06
8.87182e-06
1.85678e-05
1.85565e-05
3.33009e-06
8.86967e-06
3.27755e-06
8.87374e-06
1.45143e-07
1.4515e-07
1.45146e-07
1.41528e-07
1.41524e-07
1.41532e-07
1.41528e-07
9.07833e-07
2.53166e-06
1.62372e-07
2.12401e-07
8.82835e-07
2.56259e-06
1.61608e-07
1.85694e-05
1.85579e-05
9.07888e-07
1.62372e-07
2.5318e-06
2.12429e-07
8.82886e-07
1.61614e-07
2.56282e-06
4.97279e-06
4.9746e-06
3.02858e-07
4.99374e-06
4.99584e-06
3.45582e-06
8.87573e-06
3.41684e-06
8.87983e-06
1.85322e-05
1.85242e-05
3.45638e-06
8.87769e-06
3.41664e-06
8.88179e-06
1.40393e-07
1.40401e-07
1.40396e-07
1.37249e-07
1.37246e-07
1.37255e-07
1.3725e-07
9.84564e-07
2.62117e-06
1.59687e-07
2.16591e-07
9.59826e-07
2.64607e-06
1.59147e-07
1.85335e-05
1.85257e-05
9.8461e-07
1.59687e-07
2.6213e-06
2.16623e-07
9.59878e-07
1.59153e-07
2.64629e-06
5.02886e-06
5.03073e-06
3.18674e-07
5.04456e-06
5.04661e-06
3.52655e-06
8.88368e-06
3.51011e-06
8.88277e-06
1.85025e-05
1.84919e-05
3.52689e-06
8.88552e-06
3.51005e-06
8.88452e-06
1.36281e-07
1.3629e-07
1.36285e-07
1.33473e-07
1.33469e-07
1.33478e-07
1.33473e-07
1.05018e-06
2.6913e-06
1.57854e-07
2.21452e-07
1.03139e-06
2.70785e-06
1.57482e-07
1.8504e-05
1.84938e-05
1.05021e-06
1.57855e-07
2.69147e-06
2.21486e-07
1.03143e-06
1.57489e-07
2.70811e-06
5.06812e-06
5.07007e-06
3.34274e-07
5.07301e-06
5.07502e-06
3.54457e-06
8.87238e-06
3.54281e-06
8.86565e-06
1.84673e-05
1.8457e-05
3.54484e-06
8.87404e-06
3.54296e-06
8.8674e-06
1.32482e-07
1.32491e-07
1.32485e-07
1.29174e-07
1.29171e-07
1.29181e-07
1.29175e-07
1.08786e-06
2.73234e-06
1.56183e-07
2.24728e-07
1.07935e-06
2.73742e-06
1.55567e-07
1.84692e-05
1.84588e-05
1.0879e-06
1.56183e-07
2.73235e-06
2.24762e-07
1.07939e-06
1.55572e-07
2.73752e-06
5.07544e-06
5.07735e-06
3.45293e-07
5.07197e-06
5.07382e-06
3.54199e-06
8.85174e-06
3.54446e-06
8.84616e-06
1.84376e-05
1.84325e-05
3.54224e-06
8.85349e-06
3.54462e-06
8.84796e-06
1.27982e-07
1.27992e-07
1.27985e-07
1.24668e-07
1.24663e-07
1.24674e-07
1.24668e-07
1.10071e-06
2.74072e-06
1.53141e-07
2.24449e-07
1.09915e-06
2.73833e-06
1.52221e-07
1.84389e-05
1.84337e-05
1.10077e-06
1.53143e-07
2.74086e-06
2.24486e-07
1.09919e-06
1.52228e-07
2.73856e-06
5.06527e-06
5.06708e-06
3.48649e-07
5.06009e-06
5.06195e-06
3.53455e-06
8.83813e-06
3.53804e-06
8.8356e-06
1.84215e-05
1.84202e-05
3.53487e-06
8.83989e-06
3.53823e-06
8.83739e-06
1.23774e-07
1.23785e-07
1.23779e-07
1.21957e-07
1.21954e-07
1.21964e-07
1.2196e-07
1.1031e-06
2.73576e-06
1.49856e-07
2.22924e-07
1.10326e-06
2.73295e-06
1.49302e-07
1.84224e-05
1.84212e-05
1.10321e-06
1.49862e-07
2.73597e-06
2.2297e-07
1.10336e-06
1.49312e-07
2.73322e-06
5.05423e-06
5.05606e-06
3.48289e-07
5.05083e-06
5.05271e-06
3.52904e-06
8.83225e-06
3.53128e-06
8.83136e-06
1.84145e-05
1.84154e-05
3.52936e-06
8.83403e-06
3.53147e-06
8.8332e-06
1.21594e-07
1.21604e-07
1.21599e-07
1.21051e-07
1.21048e-07
1.21058e-07
1.21054e-07
1.10332e-06
2.73137e-06
1.48413e-07
2.22824e-07
1.10391e-06
2.72957e-06
1.48312e-07
1.84154e-05
1.84164e-05
1.10346e-06
1.48423e-07
2.73158e-06
2.22874e-07
1.10405e-06
1.48325e-07
2.72982e-06
5.04804e-06
5.04989e-06
3.48942e-07
5.0465e-06
5.04837e-06
3.5263e-06
8.83024e-06
3.52752e-06
8.83011e-06
1.84122e-05
1.84139e-05
3.52667e-06
8.83212e-06
3.52779e-06
8.83205e-06
1.20987e-07
1.20997e-07
1.20994e-07
1.20958e-07
1.20954e-07
1.20963e-07
1.2096e-07
1.10299e-06
2.72936e-06
1.48272e-07
2.23245e-07
1.10368e-06
2.72821e-06
1.48285e-07
1.8413e-05
1.84149e-05
1.10318e-06
1.48284e-07
2.72956e-06
2.23295e-07
1.10385e-06
1.48299e-07
2.72846e-06
5.04557e-06
5.04741e-06
3.49633e-07
5.0449e-06
5.04677e-06
3.52499e-06
8.82973e-06
3.52567e-06
8.82987e-06
1.84116e-05
1.84138e-05
3.52541e-06
8.83172e-06
3.52603e-06
8.8319e-06
1.2096e-07
1.20969e-07
1.20967e-07
1.21002e-07
1.20998e-07
1.21008e-07
1.21006e-07
1.10281e-06
2.72872e-06
1.48404e-07
2.23545e-07
1.10341e-06
2.72784e-06
1.48438e-07
1.84124e-05
1.84146e-05
1.103e-06
1.48414e-07
2.72891e-06
2.23593e-07
1.10361e-06
1.48453e-07
2.72809e-06
5.04463e-06
5.04648e-06
3.50022e-07
5.04422e-06
5.04611e-06
3.52466e-06
8.82969e-06
3.525e-06
8.82988e-06
1.84118e-05
1.8414e-05
3.52504e-06
8.83176e-06
3.52533e-06
8.83198e-06
1.21012e-07
1.2102e-07
1.21019e-07
1.21043e-07
1.21041e-07
1.2105e-07
1.21049e-07
1.1028e-06
2.7286e-06
1.4852e-07
2.23698e-07
1.10334e-06
2.72782e-06
1.48538e-07
1.84125e-05
1.84148e-05
1.10297e-06
1.48529e-07
2.72882e-06
2.23746e-07
1.10352e-06
1.48552e-07
2.72807e-06
5.04437e-06
5.04624e-06
3.50208e-07
5.04413e-06
5.04601e-06
3.52467e-06
8.82973e-06
3.52496e-06
8.82992e-06
1.8412e-05
1.84141e-05
3.52502e-06
8.83185e-06
3.52525e-06
8.83206e-06
1.2105e-07
1.21058e-07
1.21057e-07
1.21067e-07
1.21068e-07
1.21079e-07
1.21078e-07
1.10289e-06
2.72864e-06
1.48585e-07
2.2378e-07
1.10341e-06
2.72785e-06
1.48595e-07
1.84127e-05
1.84149e-05
1.10307e-06
1.48596e-07
2.72885e-06
2.23828e-07
1.10359e-06
1.48607e-07
2.72811e-06
5.04439e-06
5.04623e-06
3.50305e-07
5.04417e-06
5.04601e-06
3.52472e-06
8.82977e-06
3.52499e-06
8.82996e-06
1.8412e-05
1.84142e-05
3.52508e-06
8.83192e-06
3.52532e-06
8.83212e-06
1.21076e-07
1.21082e-07
1.21081e-07
1.1036e-06
2.72867e-06
1.48621e-07
2.23827e-07
1.1035e-06
2.7282e-06
1.4863e-07
1.84127e-05
1.84153e-05
1.10291e-06
1.48637e-07
2.72888e-06
2.23699e-07
1.10368e-06
1.48615e-07
2.72747e-06
5.04445e-06
5.04625e-06
3.50092e-07
5.04347e-06
5.04529e-06
5.35254e-07
5.35992e-07
5.35989e-07
1.09168e-05
5.81344e-07
1.09181e-05
5.81336e-07
5.28209e-07
2.43155e-06
2.43249e-06
5.40836e-07
5.40833e-07
5.34573e-07
5.35517e-07
5.33636e-07
5.35654e-07
5.34573e-07
5.35516e-07
5.33635e-07
5.35654e-07
5.30399e-07
3.47213e-06
5.68203e-07
8.20529e-07
5.30398e-07
3.47216e-06
5.68202e-07
8.20494e-07
5.29521e-07
5.2838e-07
1.17048e-06
5.09602e-07
5.32663e-07
5.28353e-07
5.19185e-07
5.29521e-07
5.2838e-07
1.17061e-06
5.09601e-07
5.32662e-07
5.28353e-07
5.19187e-07
5.35254e-07
5.35991e-07
5.35989e-07
1.0917e-05
5.81322e-07
5.28209e-07
2.43205e-06
2.43217e-06
5.40836e-07
5.40832e-07
1.09177e-05
5.81317e-07
5.34573e-07
5.35516e-07
5.33636e-07
5.35654e-07
5.34573e-07
5.35516e-07
5.35654e-07
5.33636e-07
5.30398e-07
3.47248e-06
5.682e-07
8.20672e-07
5.29521e-07
5.28381e-07
1.17074e-06
5.09602e-07
5.32662e-07
5.28353e-07
5.19193e-07
5.30398e-07
3.47256e-06
5.68198e-07
8.20575e-07
5.29521e-07
5.2838e-07
5.09602e-07
1.17065e-06
5.28353e-07
5.32661e-07
5.19187e-07
5.35663e-07
5.35601e-07
5.35655e-07
5.35655e-07
5.35663e-07
5.35601e-07
5.35655e-07
5.35655e-07
5.35663e-07
5.35601e-07
5.35655e-07
5.35655e-07
5.28434e-07
5.28376e-07
5.09724e-07
5.09724e-07
5.28408e-07
5.28408e-07
5.09781e-07
5.28434e-07
5.28375e-07
5.09724e-07
5.09724e-07
5.28408e-07
5.28408e-07
5.09781e-07
5.28434e-07
5.28375e-07
5.09724e-07
5.09724e-07
5.28408e-07
5.28408e-07
5.09781e-07
5.28434e-07
5.28375e-07
5.09724e-07
5.09724e-07
5.28408e-07
5.28408e-07
5.09781e-07
5.34573e-07
5.35517e-07
5.35654e-07
5.33635e-07
5.29521e-07
5.2838e-07
1.17069e-06
5.09602e-07
5.32661e-07
5.28353e-07
5.19191e-07
5.30398e-07
3.47237e-06
5.68194e-07
8.2058e-07
5.29521e-07
5.2838e-07
5.09602e-07
1.17055e-06
5.28353e-07
5.32661e-07
5.19187e-07
5.30398e-07
3.4725e-06
5.68198e-07
8.20524e-07
5.35254e-07
5.35989e-07
5.35988e-07
1.09183e-05
5.81333e-07
5.28209e-07
2.43232e-06
2.43217e-06
5.40832e-07
5.40829e-07
1.09181e-05
5.81312e-07
5.34573e-07
5.35516e-07
5.35654e-07
5.33635e-07
5.29521e-07
5.2838e-07
5.09602e-07
1.17062e-06
5.28353e-07
5.3266e-07
5.1919e-07
5.29521e-07
5.28381e-07
5.09602e-07
1.17074e-06
5.28353e-07
5.32662e-07
5.19193e-07
5.30398e-07
3.47253e-06
5.68192e-07
8.20649e-07
5.30398e-07
3.47254e-06
5.68203e-07
8.20737e-07
5.28209e-07
2.43197e-06
2.43262e-06
5.4083e-07
5.40831e-07
1.0918e-05
5.81316e-07
1.09182e-05
5.8133e-07
1.26054e-05
1.66021e-05
1.26069e-05
1.66047e-05
2.52018e-06
2.52091e-06
4.84191e-07
2.38046e-06
2.38122e-06
2.05315e-05
1.76895e-05
2.0535e-05
1.76925e-05
4.79311e-07
2.30852e-06
2.30917e-06
2.34326e-06
2.34401e-06
1.10831e-06
3.87958e-06
9.32969e-07
4.60509e-06
5.43197e-07
1.22274e-06
4.95564e-07
4.85544e-07
5.25296e-07
1.21055e-06
4.82304e-07
5.43194e-07
1.22292e-06
4.95564e-07
4.8555e-07
5.25304e-07
1.21077e-06
4.82304e-07
1.1625e-06
5.40662e-06
4.80907e-06
1.28109e-06
1.16262e-06
5.40659e-06
4.80913e-06
1.2811e-06
5.51158e-07
4.74327e-07
1.19172e-06
4.57771e-07
1.20561e-06
4.69717e-07
5.66579e-07
5.51161e-07
4.74335e-07
1.1919e-06
4.57771e-07
1.20579e-06
4.69717e-07
5.66575e-07
2.52065e-06
2.52039e-06
4.8419e-07
2.38108e-06
2.3806e-06
1.26061e-05
1.66032e-05
2.05327e-05
1.76912e-05
4.79311e-07
2.30903e-06
2.30874e-06
2.34376e-06
2.3436e-06
2.05327e-05
1.76903e-05
5.4323e-07
1.223e-06
4.95564e-07
4.85548e-07
5.25297e-07
1.2108e-06
4.82304e-07
1.10853e-06
3.88008e-06
9.32735e-07
4.60592e-06
5.43226e-07
4.95564e-07
1.22296e-06
4.85552e-07
5.25286e-07
4.82304e-07
1.21081e-06
1.16252e-06
5.4071e-06
4.8094e-06
1.28125e-06
5.51161e-07
4.74333e-07
1.19191e-06
4.57771e-07
1.20582e-06
4.69717e-07
5.66595e-07
1.16251e-06
5.40763e-06
4.80984e-06
1.28125e-06
5.5116e-07
4.74337e-07
4.57772e-07
1.19196e-06
4.69718e-07
1.20585e-06
5.66603e-07
1.10847e-06
3.87957e-06
9.32824e-07
4.60542e-06
5.4321e-07
4.95564e-07
1.22283e-06
4.85544e-07
5.25272e-07
4.82304e-07
1.21064e-06
1.10848e-06
3.88008e-06
9.32661e-07
4.60555e-06
5.51156e-07
4.74324e-07
1.19172e-06
4.5777e-07
1.20565e-06
4.69717e-07
5.66582e-07
1.16255e-06
5.40672e-06
4.80883e-06
1.28119e-06
5.51154e-07
4.74328e-07
4.57771e-07
1.19178e-06
4.69717e-07
1.20563e-06
5.66581e-07
1.16245e-06
5.40703e-06
4.80971e-06
1.28116e-06
2.52083e-06
2.52033e-06
4.84193e-07
2.3812e-06
2.38046e-06
1.26069e-05
1.66037e-05
2.0536e-05
1.76928e-05
4.79312e-07
2.30923e-06
2.30869e-06
2.34393e-06
2.34346e-06
2.05335e-05
1.7692e-05
5.43239e-07
4.95564e-07
1.22301e-06
4.85549e-07
5.25275e-07
4.82304e-07
1.21079e-06
1.10873e-06
3.88004e-06
9.32603e-07
4.60563e-06
1.1088e-06
3.87993e-06
9.32721e-07
4.60552e-06
5.51155e-07
4.74325e-07
4.57771e-07
1.19177e-06
4.69717e-07
1.20567e-06
5.66595e-07
5.51155e-07
4.74332e-07
4.57771e-07
1.19189e-06
4.69717e-07
1.2058e-06
5.66602e-07
1.16229e-06
5.40728e-06
4.80969e-06
1.28127e-06
1.16232e-06
5.40725e-06
4.80943e-06
1.2813e-06
1.26065e-05
1.66036e-05
1.2607e-05
1.66043e-05
4.79312e-07
2.30864e-06
2.30914e-06
2.34316e-06
2.34396e-06
2.05329e-05
1.76915e-05
2.05345e-05
1.76928e-05
2.12843e-05
2.31091e-05
2.12881e-05
2.31132e-05
2.31489e-06
2.31557e-06
4.53484e-07
2.35715e-06
2.35775e-06
2.44712e-05
2.3535e-05
2.44748e-05
2.35386e-05
4.50894e-07
2.4468e-06
2.44739e-06
2.38538e-06
2.38596e-06
1.43195e-06
5.59222e-06
1.33018e-06
6.13499e-06
5.87311e-07
1.19311e-06
4.46442e-07
4.44311e-07
5.73985e-07
1.20212e-06
4.35699e-07
5.87307e-07
1.19326e-06
4.46442e-07
4.4432e-07
5.73982e-07
1.2023e-06
4.35699e-07
1.47621e-06
6.77666e-06
6.29985e-06
1.55934e-06
1.47618e-06
6.77678e-06
6.29991e-06
1.55932e-06
5.93596e-07
4.35328e-07
1.22855e-06
4.15798e-07
1.20997e-06
4.25498e-07
6.03946e-07
5.93587e-07
4.35337e-07
1.22866e-06
4.15799e-07
1.21013e-06
4.25498e-07
6.03941e-07
2.31534e-06
2.31507e-06
4.5348e-07
2.35758e-06
2.35726e-06
2.12852e-05
2.31102e-05
2.44722e-05
2.35369e-05
4.50892e-07
2.44723e-06
2.44672e-06
2.38578e-06
2.38573e-06
2.44719e-05
2.35359e-05
5.87329e-07
1.19332e-06
4.46442e-07
4.44314e-07
5.74e-07
1.2023e-06
4.357e-07
1.43236e-06
5.5931e-06
1.33025e-06
6.13624e-06
5.87331e-07
4.46444e-07
1.19334e-06
4.44323e-07
5.74002e-07
4.357e-07
1.20237e-06
1.47595e-06
6.77734e-06
6.30063e-06
1.55961e-06
5.9361e-07
4.35332e-07
1.22867e-06
4.15799e-07
1.21013e-06
4.25498e-07
6.0396e-07
1.47596e-06
6.77815e-06
6.30098e-06
1.55964e-06
5.93616e-07
4.35341e-07
4.158e-07
1.22873e-06
4.255e-07
1.21026e-06
6.03969e-07
1.43213e-06
5.59209e-06
1.33015e-06
6.13506e-06
5.87317e-07
4.46442e-07
1.19315e-06
4.44313e-07
5.73988e-07
4.35699e-07
1.20223e-06
1.43201e-06
5.59279e-06
1.33026e-06
6.1355e-06