/*--------------------------------*- C++ -*----------------------------------*\
| =========                 |                                                 |
| \\      /  F ield         | OpenFOAM: The Open Source CFD Toolbox           |
|  \\    /   O peration     | Version:  v1912                                 |
|   \\  /    A nd           | Website:  www.openfoam.com                      |
|    \\/     M anipulation  |                                                 |
\*---------------------------------------------------------------------------*/
FoamFile
{
    version     2.0;
    format      ascii;
    class       volScalarField;
    location    "100";
    object      k;
}
// * * * * * * * * * * * * * * * * * * * * * * * * * * * * * * * * * * * * * //

dimensions      [0 2 -2 0 0 0 0];


internalField   nonuniform List<scalar> 
171728
(
3.58932e-05
3.58911e-05
3.58911e-05
3.59957e-05
3.39296e-05
3.38891e-05
3.38891e-05
3.39625e-05
3.21576e-05
3.20078e-05
3.20078e-05
3.19522e-05
3.05344e-05
3.02288e-05
3.02288e-05
2.99886e-05
2.90326e-05
2.85535e-05
2.85533e-05
2.81231e-05
2.7635e-05
2.69866e-05
2.69865e-05
2.63918e-05
2.63304e-05
2.55305e-05
2.55303e-05
2.4809e-05
2.51108e-05
2.41845e-05
2.41843e-05
2.33804e-05
2.39706e-05
2.29503e-05
2.29501e-05
2.21076e-05
2.29054e-05
2.18267e-05
2.18265e-05
2.09896e-05
2.19116e-05
2.08114e-05
2.08112e-05
2.00176e-05
2.09862e-05
1.99016e-05
1.99014e-05
1.91858e-05
2.01238e-05
1.90952e-05
1.9095e-05
1.84944e-05
1.93236e-05
1.83892e-05
1.83891e-05
1.79385e-05
1.85846e-05
1.77803e-05
1.77803e-05
1.75122e-05
1.79039e-05
1.72667e-05
1.72667e-05
1.72066e-05
1.728e-05
1.68481e-05
1.68482e-05
1.7029e-05
1.67092e-05
1.65221e-05
1.65223e-05
1.69873e-05
1.61928e-05
1.62898e-05
1.62901e-05
1.70807e-05
1.57225e-05
1.61423e-05
1.61427e-05
1.72872e-05
1.52981e-05
1.60637e-05
1.60641e-05
1.75711e-05
1.49193e-05
1.60226e-05
1.60232e-05
1.78425e-05
1.45193e-05
1.58865e-05
1.58871e-05
1.79448e-05
1.41776e-05
1.57227e-05
1.57237e-05
1.78945e-05
1.40157e-05
1.56864e-05
1.56875e-05
1.78941e-05
1.39861e-05
1.57093e-05
1.57105e-05
1.7938e-05
1.39904e-05
1.57358e-05
1.57369e-05
1.79667e-05
1.3997e-05
1.57484e-05
1.57496e-05
1.79822e-05
1.40007e-05
1.57541e-05
1.57554e-05
1.79884e-05
1.40031e-05
1.57571e-05
1.57586e-05
1.79913e-05
3.63067e-05
3.6291e-05
3.6291e-05
3.63067e-05
3.6291e-05
3.6291e-05
3.6423e-05
3.6423e-05
3.6423e-05
3.6423e-05
3.6291e-05
3.6291e-05
3.63067e-05
3.6291e-05
3.6291e-05
3.63067e-05
3.59957e-05
3.4269e-05
3.58911e-05
3.58911e-05
3.43769e-05
3.43768e-05
3.59957e-05
3.4269e-05
3.58911e-05
3.58911e-05
3.43769e-05
3.43768e-05
3.58911e-05
3.43769e-05
3.43769e-05
3.59957e-05
3.4269e-05
3.58911e-05
3.43769e-05
3.43769e-05
3.4269e-05
3.39625e-05
3.22637e-05
3.3889e-05
3.3889e-05
3.24682e-05
3.24681e-05
3.39625e-05
3.22638e-05
3.3889e-05
3.3889e-05
3.24682e-05
3.24681e-05
3.3889e-05
3.24683e-05
3.24682e-05
3.39625e-05
3.22637e-05
3.3889e-05
3.24683e-05
3.24682e-05
3.22637e-05
3.19523e-05
3.02998e-05
3.20077e-05
3.20076e-05
3.06639e-05
3.06637e-05
3.19523e-05
3.02999e-05
3.20077e-05
3.20075e-05
3.0664e-05
3.06637e-05
3.20076e-05
3.06641e-05
3.06638e-05
3.19522e-05
3.02997e-05
3.20077e-05
3.06641e-05
3.0664e-05
3.02997e-05
2.99887e-05
2.84262e-05
3.02285e-05
3.02284e-05
2.89619e-05
2.89616e-05
2.99887e-05
2.84263e-05
3.02287e-05
3.02283e-05
2.8962e-05
2.89615e-05
3.02285e-05
2.89623e-05
2.89618e-05
2.99886e-05
2.8426e-05
3.02286e-05
2.89621e-05
2.8962e-05
2.8426e-05
2.81232e-05
2.66751e-05
2.8553e-05
2.85528e-05
2.73674e-05
2.73672e-05
2.81233e-05
2.66752e-05
2.85532e-05
2.85527e-05
2.73677e-05
2.7367e-05
2.85529e-05
2.7368e-05
2.73673e-05
2.81231e-05
2.66749e-05
2.85532e-05
2.73678e-05
2.73677e-05
2.66749e-05
2.63919e-05
2.50679e-05
2.6986e-05
2.69858e-05
2.58835e-05
2.58833e-05
2.63921e-05
2.50681e-05
2.69864e-05
2.69856e-05
2.58839e-05
2.58831e-05
2.6986e-05
2.58842e-05
2.58835e-05
2.63918e-05
2.50677e-05
2.69863e-05
2.5884e-05
2.58839e-05
2.50677e-05
2.48091e-05
2.36147e-05
2.55298e-05
2.55295e-05
2.45098e-05
2.45095e-05
2.48093e-05
2.36149e-05
2.55302e-05
2.55293e-05
2.45103e-05
2.45093e-05
2.55297e-05
2.45106e-05
2.45097e-05
2.4809e-05
2.36145e-05
2.55302e-05
2.45104e-05
2.45102e-05
2.36145e-05
2.33806e-05
2.23153e-05
2.41837e-05
2.41834e-05
2.32475e-05
2.32472e-05
2.33808e-05
2.23155e-05
2.41842e-05
2.41832e-05
2.32481e-05
2.32469e-05
2.41836e-05
2.32484e-05
2.32474e-05
2.33804e-05
2.23151e-05
2.41842e-05
2.32482e-05
2.32481e-05
2.23151e-05
2.21079e-05
2.11716e-05
2.29494e-05
2.2949e-05
2.20964e-05
2.2096e-05
2.2108e-05
2.11718e-05
2.295e-05
2.29488e-05
2.2097e-05
2.20958e-05
2.29493e-05
2.20974e-05
2.20963e-05
2.21077e-05
2.11714e-05
2.295e-05
2.20972e-05
2.2097e-05
2.11713e-05
2.09899e-05
2.01749e-05
2.18257e-05
2.18254e-05
2.10542e-05
2.10538e-05
2.09901e-05
2.01751e-05
2.18264e-05
2.18251e-05
2.1055e-05
2.10536e-05
2.18256e-05
2.10553e-05
2.10541e-05
2.09897e-05
2.01747e-05
2.18264e-05
2.10551e-05
2.1055e-05
2.01746e-05
2.00179e-05
1.93194e-05
2.08103e-05
2.081e-05
2.01182e-05
2.01179e-05
2.00181e-05
1.93195e-05
2.08111e-05
2.08098e-05
2.0119e-05
2.01177e-05
2.08103e-05
2.01194e-05
2.01182e-05
2.00177e-05
1.93191e-05
2.08111e-05
2.01192e-05
2.01191e-05
1.9319e-05
1.91861e-05
1.85962e-05
1.99005e-05
1.99001e-05
1.92861e-05
1.92858e-05
1.91863e-05
1.85964e-05
1.99013e-05
1.98999e-05
1.92869e-05
1.92855e-05
1.99004e-05
1.92872e-05
1.9286e-05
1.91859e-05
1.8596e-05
1.99013e-05
1.9287e-05
1.92869e-05
1.85958e-05
1.84947e-05
1.8004e-05
1.90941e-05
1.90938e-05
1.85554e-05
1.85551e-05
1.84948e-05
1.80042e-05
1.90949e-05
1.90936e-05
1.85562e-05
1.85549e-05
1.90941e-05
1.85565e-05
1.85554e-05
1.84945e-05
1.80039e-05
1.90949e-05
1.85563e-05
1.85562e-05
1.80037e-05
1.79388e-05
1.75456e-05
1.83882e-05
1.83879e-05
1.79226e-05
1.79223e-05
1.79388e-05
1.75457e-05
1.8389e-05
1.83877e-05
1.79234e-05
1.79221e-05
1.83881e-05
1.79235e-05
1.79225e-05
1.79386e-05
1.75455e-05
1.8389e-05
1.79235e-05
1.79234e-05
1.75454e-05
1.75125e-05
1.72242e-05
1.77793e-05
1.77791e-05
1.73855e-05
1.73853e-05
1.75125e-05
1.72241e-05
1.77802e-05
1.7779e-05
1.73863e-05
1.73852e-05
1.77793e-05
1.73863e-05
1.73855e-05
1.75124e-05
1.7224e-05
1.77802e-05
1.73863e-05
1.73863e-05
1.72239e-05
1.72068e-05
1.70325e-05
1.72658e-05
1.72656e-05
1.69433e-05
1.69431e-05
1.72068e-05
1.70324e-05
1.72666e-05
1.72655e-05
1.6944e-05
1.6943e-05
1.72658e-05
1.6944e-05
1.69432e-05
1.72067e-05
1.70325e-05
1.72666e-05
1.6944e-05
1.6944e-05
1.70323e-05
1.70292e-05
1.69786e-05
1.68474e-05
1.68472e-05
1.65944e-05
1.65942e-05
1.7029e-05
1.69783e-05
1.68481e-05
1.68472e-05
1.65951e-05
1.65943e-05
1.68473e-05
1.65949e-05
1.65943e-05
1.70291e-05
1.69786e-05
1.68481e-05
1.6595e-05
1.65951e-05
1.69784e-05
1.69875e-05
1.70463e-05
1.65216e-05
1.65215e-05
1.63387e-05
1.63385e-05
1.69872e-05
1.7046e-05
1.65222e-05
1.65215e-05
1.63393e-05
1.63387e-05
1.65215e-05
1.63389e-05
1.63386e-05
1.69875e-05
1.70464e-05
1.65223e-05
1.63392e-05
1.63393e-05
1.70463e-05
1.70808e-05
1.72325e-05
1.62894e-05
1.62893e-05
1.61725e-05
1.61724e-05
1.70804e-05
1.72321e-05
1.629e-05
1.62894e-05
1.6173e-05
1.61726e-05
1.62894e-05
1.61725e-05
1.61724e-05
1.70809e-05
1.72327e-05
1.629e-05
1.61729e-05
1.61731e-05
1.72326e-05
1.72871e-05
1.75034e-05
1.61421e-05
1.61421e-05
1.60765e-05
1.60766e-05
1.72867e-05
1.7503e-05
1.61426e-05
1.61423e-05
1.60769e-05
1.60768e-05
1.6142e-05
1.60764e-05
1.60765e-05
1.72872e-05
1.75036e-05
1.61427e-05
1.60768e-05
1.60771e-05
1.75036e-05
1.75708e-05
1.77869e-05
1.60635e-05
1.60636e-05
1.60365e-05
1.60367e-05
1.75704e-05
1.77864e-05
1.6064e-05
1.60638e-05
1.60369e-05
1.6037e-05
1.60635e-05
1.60364e-05
1.60366e-05
1.7571e-05
1.77874e-05
1.60641e-05
1.60369e-05
1.60371e-05
1.77873e-05
1.78418e-05
1.79251e-05
1.60224e-05
1.60227e-05
1.59314e-05
1.59317e-05
1.78414e-05
1.79249e-05
1.60229e-05
1.6023e-05
1.59318e-05
1.59321e-05
1.60226e-05
1.59314e-05
1.59316e-05
1.78423e-05
1.79259e-05
1.60231e-05
1.5932e-05
1.5932e-05
1.79256e-05
1.7944e-05
1.78797e-05
1.58863e-05
1.58866e-05
1.57542e-05
1.57545e-05
1.79438e-05
1.7879e-05
1.58867e-05
1.5887e-05
1.57546e-05
1.57547e-05
1.58866e-05
1.57538e-05
1.57546e-05
1.79447e-05
1.788e-05
1.58869e-05
1.57546e-05
1.57549e-05
1.78803e-05
1.78933e-05
1.78675e-05
1.57231e-05
1.57234e-05
1.56872e-05
1.56877e-05
1.78926e-05
1.78665e-05
1.57234e-05
1.57235e-05
1.56876e-05
1.56876e-05
1.57234e-05
1.56867e-05
1.56877e-05
1.78935e-05
1.78676e-05
1.57238e-05
1.56878e-05
1.56882e-05
1.78681e-05
1.78928e-05
1.79128e-05
1.56869e-05
1.56873e-05
1.57012e-05
1.57016e-05
1.78918e-05
1.79117e-05
1.56873e-05
1.56872e-05
1.57016e-05
1.57013e-05
1.56873e-05
1.57005e-05
1.57015e-05
1.78927e-05
1.79125e-05
1.56878e-05
1.57017e-05
1.57021e-05
1.7913e-05
1.79368e-05
1.79452e-05
1.57101e-05
1.57105e-05
1.57315e-05
1.57319e-05
1.79357e-05
1.79439e-05
1.57106e-05
1.57101e-05
1.5732e-05
1.57315e-05
1.57104e-05
1.57308e-05
1.5732e-05
1.79364e-05
1.79446e-05
1.5711e-05
1.5732e-05
1.57326e-05
1.79453e-05
1.79657e-05
1.79622e-05
1.57364e-05
1.57368e-05
1.57467e-05
1.57472e-05
1.79645e-05
1.7961e-05
1.57369e-05
1.57364e-05
1.57473e-05
1.57468e-05
1.57369e-05
1.57461e-05
1.57474e-05
1.79651e-05
1.79617e-05
1.57375e-05
1.57473e-05
1.57479e-05
1.79624e-05
1.79814e-05
1.79691e-05
1.57489e-05
1.57494e-05
1.57535e-05
1.57541e-05
1.79803e-05
1.79682e-05
1.57494e-05
1.57489e-05
1.57541e-05
1.57536e-05
1.57495e-05
1.57531e-05
1.57542e-05
1.79808e-05
1.79688e-05
1.57501e-05
1.57541e-05
1.57548e-05
1.79696e-05
1.79874e-05
1.79722e-05
1.57544e-05
1.5755e-05
1.57569e-05
1.57577e-05
1.79865e-05
1.79714e-05
1.5755e-05
1.57548e-05
1.57575e-05
1.5757e-05
1.57554e-05
1.57567e-05
1.57576e-05
1.79871e-05
1.7972e-05
1.57559e-05
1.57577e-05
1.57582e-05
1.79727e-05
1.79903e-05
1.57573e-05
1.57581e-05
1.79895e-05
1.5758e-05
1.5758e-05
1.57585e-05
1.79901e-05
1.57591e-05
3.73773e-05
3.73765e-05
3.7377e-05
3.7377e-05
3.73701e-05
3.73777e-05
3.73044e-05
3.73768e-05
3.73701e-05
3.73777e-05
3.73768e-05
3.73044e-05
3.73741e-05
3.72959e-05
3.72959e-05
3.58856e-05
4.08634e-05
3.66024e-05
4.51403e-05
5.51073e-05
6.49002e-05
3.58863e-05
4.08626e-05
3.66024e-05
4.51401e-05
3.58931e-05
3.58932e-05
3.58932e-05
3.44004e-05
3.44004e-05
3.44004e-05
3.44004e-05
3.52758e-05
3.56356e-05
3.58928e-05
3.53772e-05
3.60472e-05
3.42282e-05
3.53823e-05
5.51094e-05
6.49041e-05
3.52759e-05
3.58928e-05
3.56353e-05
3.53772e-05
3.60471e-05
3.53823e-05
3.42291e-05
3.65902e-05
3.65908e-05
3.52791e-05
3.40758e-05
3.40749e-05
3.39683e-05
5.13462e-05
3.46786e-05
5.46157e-05
7.65492e-05
8.0862e-05
3.39708e-05
5.13471e-05
3.46782e-05
5.46162e-05
3.39296e-05
3.39296e-05
3.39296e-05
3.25853e-05
3.25853e-05
3.25853e-05
3.25853e-05
3.30537e-05
3.24566e-05
3.39297e-05
3.34087e-05
3.38956e-05
3.15546e-05
3.34679e-05
7.65506e-05
8.08659e-05
3.30537e-05
3.39297e-05
3.24557e-05
3.34087e-05
3.38953e-05
3.34679e-05
3.15563e-05
3.17147e-05
3.17141e-05
3.3264e-05
3.09229e-05
3.09214e-05
3.22533e-05
5.91632e-05
3.2926e-05
6.14336e-05
8.43949e-05
8.50687e-05
3.22556e-05
5.91649e-05
3.29238e-05
6.14357e-05
3.21576e-05
3.21576e-05
3.21576e-05
3.0928e-05
3.09279e-05
3.09279e-05
3.0928e-05
3.07885e-05
3.04924e-05
3.21376e-05
3.15537e-05
3.16359e-05
2.98643e-05
3.17101e-05
8.43967e-05
8.50712e-05
3.07885e-05
3.21376e-05
3.04925e-05
3.15537e-05
3.16354e-05
3.17101e-05
2.98654e-05
3.02118e-05
3.02108e-05
3.12734e-05
2.99964e-05
2.9995e-05
3.07569e-05
6.43482e-05
3.13539e-05
6.57239e-05
8.46129e-05
8.39079e-05
3.07579e-05
6.43498e-05
3.13538e-05
6.57272e-05
3.05344e-05
3.05344e-05
3.05344e-05
2.93977e-05
2.93977e-05
2.93977e-05
2.93977e-05
2.85994e-05
2.91201e-05
3.04693e-05
2.98e-05
2.94117e-05
2.86537e-05
3.00685e-05
8.46129e-05
8.39107e-05
2.85993e-05
3.04692e-05
2.91206e-05
2.97999e-05
2.94112e-05
3.00684e-05
2.86547e-05
2.99292e-05
2.99281e-05
2.9349e-05
3.00219e-05
3.00209e-05
2.95221e-05
6.7321e-05
3.00047e-05
6.80352e-05
8.22123e-05
8.12149e-05
2.9523e-05
6.73232e-05
3.0005e-05
6.80389e-05
2.90326e-05
2.90325e-05
2.90326e-05
2.79753e-05
2.79753e-05
2.79753e-05
2.79753e-05
2.6566e-05
2.81038e-05
2.89024e-05
2.81514e-05
2.73152e-05
2.77632e-05
2.85253e-05
8.22111e-05
8.12173e-05
2.65661e-05
2.89023e-05
2.81042e-05
2.81513e-05
2.73147e-05
2.85252e-05
2.77642e-05
3.04256e-05
3.04254e-05
2.75339e-05
3.07661e-05
3.0765e-05
2.86086e-05
6.87475e-05
2.89518e-05
6.90431e-05
7.94319e-05
7.85256e-05
2.86096e-05
6.87506e-05
2.8952e-05
6.90465e-05
2.7635e-05
2.76349e-05
2.7635e-05
2.66483e-05
2.66483e-05
2.66482e-05
2.66483e-05
2.47417e-05
2.73904e-05
2.74282e-05
2.66122e-05
2.54117e-05
2.71766e-05
2.70737e-05
7.94299e-05
7.85279e-05
2.47418e-05
2.74281e-05
2.73908e-05
2.6612e-05
2.54112e-05
2.70735e-05
2.71776e-05
3.15433e-05
3.15436e-05
2.58524e-05
3.21132e-05
3.21133e-05
2.80641e-05
6.92602e-05
2.82497e-05
6.93221e-05
7.70008e-05
7.62795e-05
2.8065e-05
6.92637e-05
2.82499e-05
6.93254e-05
2.63304e-05
2.63303e-05
2.63304e-05
2.54081e-05
2.54081e-05
2.54079e-05
2.5408e-05
2.31618e-05
2.69889e-05
2.60438e-05
2.51836e-05
2.37438e-05
2.691e-05
2.57116e-05
7.69989e-05
7.62816e-05
2.3162e-05
2.60437e-05
2.69893e-05
2.51834e-05
2.37433e-05
2.57114e-05
2.69107e-05
3.31721e-05
3.31732e-05
2.43219e-05
3.39065e-05
3.39079e-05
2.79207e-05
6.93135e-05
2.7934e-05
6.92871e-05
7.50677e-05
7.45277e-05
2.7921e-05
6.93169e-05
2.79341e-05
6.92905e-05
2.51108e-05
2.51107e-05
2.51108e-05
2.42484e-05
2.42484e-05
2.42483e-05
2.42484e-05
2.1845e-05
2.69252e-05
2.47481e-05
2.38655e-05
2.23348e-05
2.69736e-05
2.4438e-05
7.50663e-05
7.45291e-05
2.18452e-05
2.4748e-05
2.69253e-05
2.38653e-05
2.23343e-05
2.44378e-05
2.69743e-05
3.51743e-05
3.51764e-05
2.29449e-05
3.60192e-05
3.60223e-05
2.81667e-05
6.92148e-05
2.80396e-05
6.91831e-05
7.36011e-05
7.32059e-05
2.8167e-05
6.92185e-05
2.80392e-05
6.91868e-05
2.39706e-05
2.39704e-05
2.39705e-05
2.31648e-05
2.31648e-05
2.31646e-05
2.31647e-05
2.07996e-05
2.71932e-05
2.35401e-05
2.26592e-05
2.11938e-05
2.73487e-05
2.32514e-05
7.36013e-05
7.32061e-05
2.07997e-05
2.354e-05
2.71934e-05
2.26589e-05
2.11934e-05
2.32512e-05
2.73496e-05
3.74234e-05
3.74267e-05
2.17242e-05
3.83359e-05
3.83409e-05
2.88319e-05
6.91338e-05
2.85641e-05
6.91225e-05
7.25224e-05
7.22371e-05
2.88322e-05
6.91377e-05
2.85638e-05
6.91266e-05
2.29054e-05
2.29052e-05
2.29053e-05
2.21535e-05
2.21535e-05
2.21533e-05
2.21534e-05
2.00277e-05
2.77749e-05
2.24162e-05
2.15629e-05
2.03179e-05
2.80301e-05
2.21483e-05
7.25228e-05
7.22374e-05
2.00277e-05
2.24161e-05
2.77753e-05
2.15627e-05
2.03177e-05
2.2148e-05
2.80312e-05
3.98102e-05
3.98149e-05
2.0655e-05
4.07518e-05
4.07586e-05
2.99164e-05
6.91208e-05
2.9509e-05
6.91352e-05
7.17461e-05
7.15451e-05
2.9928e-05
6.91251e-05
2.95087e-05
6.91397e-05
2.19117e-05
2.19115e-05
2.19116e-05
2.12112e-05
2.12112e-05
2.1211e-05
2.12111e-05
1.95229e-05
2.86459e-05
2.13759e-05
2.05742e-05
1.97038e-05
2.89906e-05
2.1129e-05
7.17466e-05
7.15455e-05
1.95231e-05
2.13758e-05
2.86465e-05
2.0574e-05
1.97038e-05
2.11288e-05
2.89919e-05
4.22362e-05
4.22423e-05
1.97296e-05
4.31733e-05
4.31819e-05
3.14396e-05
6.91701e-05
3.08457e-05
6.92066e-05
7.11988e-05
7.10597e-05
3.14501e-05
6.9175e-05
3.0832e-05
6.92115e-05
2.09862e-05
2.0986e-05
2.09861e-05
2.03337e-05
2.03337e-05
2.03335e-05
2.03336e-05
1.92833e-05
2.9772e-05
2.0419e-05
1.96903e-05
1.93543e-05
3.01931e-05
2.01925e-05
7.11992e-05
7.10601e-05
1.92834e-05
2.04189e-05
2.97728e-05
1.96902e-05
1.93544e-05
2.01922e-05
3.01945e-05
4.46159e-05
4.46234e-05
1.89413e-05
4.552e-05
4.55301e-05
3.33327e-05
6.92636e-05
3.25644e-05
6.93098e-05
7.08172e-05
7.07212e-05
3.33356e-05
6.92689e-05
3.25604e-05
6.9315e-05
2.01238e-05
2.01236e-05
2.01237e-05
1.95179e-05
1.95179e-05
1.95177e-05
1.95178e-05
1.93034e-05
3.11123e-05
1.95424e-05
1.89094e-05
1.92714e-05
3.15947e-05
1.93355e-05
7.08176e-05
7.07215e-05
1.93035e-05
1.95423e-05
3.11132e-05
1.89093e-05
1.92715e-05
1.93353e-05
3.15963e-05
4.68792e-05
4.68879e-05
1.82833e-05
4.77273e-05
4.77386e-05
3.55347e-05
6.93731e-05
3.46433e-05
6.94197e-05
7.05495e-05
7.04822e-05
3.55362e-05
6.93786e-05
3.46436e-05
6.94252e-05
1.93236e-05
1.93234e-05
1.93235e-05
1.87637e-05
1.87637e-05
1.87635e-05
1.87636e-05
1.95749e-05
3.26196e-05
1.87433e-05
1.8228e-05
1.94568e-05
3.31464e-05
1.85553e-05
7.05498e-05
7.04826e-05
1.95751e-05
1.87432e-05
3.26207e-05
1.82279e-05
1.9457e-05
1.85551e-05
3.3148e-05
4.89737e-05
4.89833e-05
1.77576e-05
4.97506e-05
4.97629e-05
3.79755e-05
6.94804e-05
3.70019e-05
6.95236e-05
7.03559e-05
7.03064e-05
3.79772e-05
6.94861e-05
3.7002e-05
6.95292e-05
1.85846e-05
1.85844e-05
1.85845e-05
1.80689e-05
1.80688e-05
1.80686e-05
1.80688e-05
2.01022e-05
3.42421e-05
1.80191e-05
1.76431e-05
1.98997e-05
3.47957e-05
1.78496e-05
7.03563e-05
7.03068e-05
2.01025e-05
1.8019e-05
3.42432e-05
1.76431e-05
1.98999e-05
1.78494e-05
3.47973e-05
5.0868e-05
5.08783e-05
1.7368e-05
5.15668e-05
5.15797e-05
4.05544e-05
6.95788e-05
3.954e-05
6.96179e-05
7.02076e-05
7.01687e-05
4.05562e-05
6.95846e-05
3.954e-05
6.96235e-05
1.79039e-05
1.79037e-05
1.79038e-05
1.74309e-05
1.74308e-05
1.74306e-05
1.74308e-05
2.08783e-05
3.59279e-05
1.73673e-05
1.71532e-05
2.05944e-05
3.64917e-05
1.72156e-05
7.02079e-05
7.0169e-05
2.08786e-05
1.73672e-05
3.5929e-05
1.71533e-05
2.05947e-05
1.72155e-05
3.64933e-05
5.2552e-05
5.25626e-05
1.71116e-05
5.31713e-05
5.31844e-05
4.31574e-05
6.96679e-05
4.21485e-05
6.97034e-05
7.00852e-05
7.00519e-05
4.31599e-05
6.96737e-05
4.21484e-05
6.9709e-05
1.728e-05
1.72799e-05
1.728e-05
1.68472e-05
1.68471e-05
1.68469e-05
1.68471e-05
2.18895e-05
3.76287e-05
1.67878e-05
1.6758e-05
2.15297e-05
3.8188e-05
1.66538e-05
7.00855e-05
7.00522e-05
2.18899e-05
1.67877e-05
3.76298e-05
1.67581e-05
2.15301e-05
1.66538e-05
3.81897e-05
5.40299e-05
5.40407e-05
1.69884e-05
5.45743e-05
5.45876e-05
4.56727e-05
6.97482e-05
4.47122e-05
6.97811e-05
6.99784e-05
6.99498e-05
4.56757e-05
6.9754e-05
4.47118e-05
6.97867e-05
1.67092e-05
1.67091e-05
1.67092e-05
1.63169e-05
1.63169e-05
1.63167e-05
1.63168e-05
2.31123e-05
3.9301e-05
1.62768e-05
1.64551e-05
2.26859e-05
3.98413e-05
1.61597e-05
6.99787e-05
6.99502e-05
2.31127e-05
1.62768e-05
3.93021e-05
1.64552e-05
2.26863e-05
1.61597e-05
3.9843e-05
5.53159e-05
5.53266e-05
1.69962e-05
5.57871e-05
5.58003e-05
4.79894e-05
6.98219e-05
4.7119e-05
6.98438e-05
6.98832e-05
6.98544e-05
4.79931e-05
6.98276e-05
4.71183e-05
6.98493e-05
1.61929e-05
1.61928e-05
1.61929e-05
1.58369e-05
1.58368e-05
1.58367e-05
1.58368e-05
2.45053e-05
4.09031e-05
1.58349e-05
1.62459e-05
2.40289e-05
4.14059e-05
1.5735e-05
6.98832e-05
6.98544e-05
2.45058e-05
1.58349e-05
4.09043e-05
1.62462e-05
2.40294e-05
1.57351e-05
4.14075e-05
5.64198e-05
5.64305e-05
1.71261e-05
5.68041e-05
5.68177e-05
4.99827e-05
6.98641e-05
4.92721e-05
6.98851e-05
6.97932e-05
6.97734e-05
4.99865e-05
6.987e-05
4.92711e-05
6.98913e-05
1.57226e-05
1.57225e-05
1.57226e-05
1.53986e-05
1.53985e-05
1.53984e-05
1.53985e-05
2.59911e-05
4.2363e-05
1.5456e-05
1.61157e-05
2.54989e-05
4.2804e-05
1.53698e-05
6.97929e-05
6.97733e-05
2.59915e-05
1.5456e-05
4.23641e-05
1.61161e-05
2.54994e-05
1.53698e-05
4.28057e-05
5.73362e-05
5.73473e-05
1.73599e-05
5.76697e-05
5.76832e-05
5.12775e-05
6.9906e-05
5.08871e-05
6.99018e-05
6.97195e-05
6.96931e-05
5.12816e-05
6.99119e-05
5.0886e-05
6.99074e-05
1.52982e-05
1.52982e-05
1.52983e-05
1.50141e-05
1.5014e-05
1.5014e-05
1.50141e-05
2.73515e-05
4.36061e-05
1.51373e-05
1.60539e-05
2.69417e-05
4.39305e-05
1.50687e-05
6.97192e-05
6.96934e-05
2.73516e-05
1.51373e-05
4.36077e-05
1.60543e-05
2.69419e-05
1.50688e-05
4.39331e-05
5.80765e-05
5.80885e-05
1.7654e-05
5.82413e-05
5.82546e-05
5.17587e-05
6.98483e-05
5.16418e-05
6.98132e-05
6.96315e-05
6.96053e-05
5.17635e-05
6.98534e-05
5.16436e-05
6.98188e-05
1.49194e-05
1.49194e-05
1.49195e-05
1.4621e-05
1.46208e-05
1.46208e-05
1.46209e-05
2.82259e-05
4.44161e-05
1.48715e-05
1.60009e-05
2.8011e-05
4.45572e-05
1.48013e-05
6.96317e-05
6.96054e-05
2.82265e-05
1.48716e-05
4.44164e-05
1.60014e-05
2.80116e-05
1.48015e-05
4.45575e-05
5.84035e-05
5.84139e-05
1.78825e-05
5.84305e-05
5.84406e-05
5.18444e-05
6.974e-05
5.18463e-05
6.97104e-05
6.95561e-05
6.9543e-05
5.18482e-05
6.97456e-05
5.18494e-05
6.97162e-05
1.45194e-05
1.45194e-05
1.45195e-05
1.4248e-05
1.42478e-05
1.42479e-05
1.4248e-05
2.85671e-05
4.46956e-05
1.45713e-05
1.58388e-05
2.85058e-05
4.46876e-05
1.44945e-05
6.95549e-05
6.95417e-05
2.8568e-05
1.45714e-05
4.46992e-05
1.58395e-05
2.85065e-05
1.44947e-05
4.46922e-05
5.84261e-05
5.84361e-05
1.79077e-05
5.84095e-05
5.84204e-05
5.18012e-05
6.96676e-05
5.18192e-05
6.9654e-05
6.95152e-05
6.95116e-05
5.18071e-05
6.96732e-05
5.18238e-05
6.96598e-05
1.41776e-05
1.41777e-05
1.41778e-05
1.40405e-05
1.40406e-05
1.40406e-05
1.40408e-05
2.86393e-05
4.46748e-05
1.43061e-05
1.57017e-05
2.86294e-05
4.466e-05
1.42645e-05
6.9513e-05
6.95097e-05
2.86416e-05
1.43064e-05
4.46797e-05
1.57027e-05
2.86314e-05
1.42649e-05
4.46648e-05
5.83673e-05
5.83781e-05
1.78662e-05
5.83517e-05
5.83629e-05
5.17609e-05
6.96361e-05
5.17719e-05
6.96313e-05
6.94971e-05
6.94993e-05
5.17652e-05
6.96419e-05
5.17764e-05
6.96374e-05
1.4016e-05
1.4016e-05
1.40162e-05
1.39868e-05
1.39865e-05
1.39865e-05
1.39867e-05
2.86773e-05
4.46515e-05
1.42043e-05
1.56873e-05
2.86764e-05
4.46424e-05
1.42001e-05
6.94948e-05
6.94973e-05
2.86803e-05
1.42047e-05
4.46558e-05
1.56884e-05
2.86793e-05
1.42006e-05
4.46469e-05
5.83288e-05
5.83397e-05
1.78911e-05
5.83221e-05
5.8333e-05
5.17374e-05
6.96253e-05
5.17445e-05
6.96246e-05
6.9491e-05
6.94954e-05
5.17434e-05
6.96316e-05
5.17489e-05
6.96312e-05
1.39858e-05
1.39858e-05
1.3986e-05
1.39889e-05
1.39885e-05
1.39886e-05
1.39889e-05
2.8688e-05
4.46415e-05
1.42013e-05
1.57175e-05
2.86939e-05
4.46362e-05
1.42063e-05
6.94887e-05
6.94936e-05
2.86922e-05
1.42018e-05
4.46457e-05
1.57187e-05
2.86978e-05
1.42069e-05
4.46407e-05
5.83129e-05
5.83234e-05
1.79315e-05
5.83099e-05
5.8321e-05
5.17193e-05
6.96225e-05
5.17244e-05
6.96232e-05
6.94896e-05
6.94951e-05
5.17271e-05
6.96294e-05
5.17319e-05
6.96303e-05
1.39907e-05
1.39907e-05
1.3991e-05
1.3996e-05
1.39957e-05
1.39957e-05
1.39961e-05
2.86916e-05
4.46393e-05
1.42189e-05
1.57399e-05
2.8698e-05
4.46354e-05
1.42227e-05
6.94872e-05
6.94928e-05
2.86959e-05
1.42195e-05
4.46433e-05
1.57411e-05
2.87024e-05
1.42233e-05
4.46399e-05
5.83033e-05
5.83144e-05
1.79549e-05
5.83025e-05
5.83137e-05
5.17144e-05
6.96223e-05
5.17134e-05
6.96233e-05
6.94902e-05
6.94957e-05
5.17214e-05
6.96296e-05
5.17202e-05
6.96307e-05
1.39971e-05
1.39971e-05
1.39975e-05
1.40002e-05
1.39999e-05
1.4e-05
1.40003e-05
2.86945e-05
4.464e-05
1.4229e-05
1.57501e-05
2.87008e-05
4.46367e-05
1.4231e-05
6.94874e-05
6.94933e-05
2.86983e-05
1.42296e-05
4.46443e-05
1.57513e-05
2.8705e-05
1.42316e-05
4.46413e-05
5.83005e-05
5.83116e-05
1.79669e-05
5.83013e-05
5.83124e-05
5.17153e-05
6.96225e-05
5.17139e-05
6.96235e-05
6.94905e-05
6.94959e-05
5.17219e-05
6.963e-05
5.17201e-05
6.96311e-05
1.40008e-05
1.40008e-05
1.40011e-05
1.40024e-05
1.40023e-05
1.40026e-05
1.40029e-05
2.86981e-05
4.46414e-05
1.42341e-05
1.5755e-05
2.87044e-05
4.46379e-05
1.42351e-05
6.94878e-05
6.94936e-05
2.8702e-05
1.42346e-05
4.46457e-05
1.5756e-05
2.87084e-05
1.42358e-05
4.46425e-05
5.83009e-05
5.83117e-05
1.79712e-05
5.83019e-05
5.83125e-05
5.17163e-05
6.96227e-05
5.17147e-05
6.96237e-05
6.94907e-05
6.9496e-05
5.1723e-05
6.96304e-05
5.17221e-05
6.96315e-05
1.40031e-05
1.40029e-05
1.40032e-05
2.86995e-05
4.46424e-05
1.42371e-05
1.5758e-05
2.87073e-05
4.46387e-05
1.42374e-05
6.9488e-05
6.94944e-05
2.86792e-05
1.42373e-05
4.46466e-05
1.5757e-05
2.87113e-05
1.42406e-05
4.46241e-05
5.83017e-05
5.83119e-05
1.79693e-05
5.82883e-05
5.82986e-05
3.73741e-05
3.72959e-05
3.72959e-05
5.31146e-05
3.71931e-05
5.31165e-05
3.71931e-05
3.70931e-05
3.72452e-05
3.72465e-05
3.71762e-05
3.71762e-05
3.73701e-05
3.73777e-05
3.73044e-05
3.73768e-05
3.73701e-05
3.73777e-05
3.73044e-05
3.73768e-05
3.71731e-05
3.94117e-05
3.71676e-05
3.67257e-05
3.71731e-05
3.94117e-05
3.71676e-05
3.67258e-05
3.70959e-05
3.71022e-05
3.60206e-05
3.64211e-05
3.71634e-05
3.71109e-05
3.63053e-05
3.70959e-05
3.71022e-05
3.60211e-05
3.64211e-05
3.71634e-05
3.71109e-05
3.63054e-05
3.73741e-05
3.72959e-05
3.72959e-05
5.31147e-05
3.71931e-05
3.70931e-05
3.72469e-05
3.72447e-05
3.71762e-05
3.71762e-05
5.31163e-05
3.71932e-05
3.73701e-05
3.73777e-05
3.73044e-05
3.73768e-05
3.73701e-05
3.73777e-05
3.73768e-05
3.73044e-05
3.71731e-05
3.94122e-05
3.71676e-05
3.67259e-05
3.70959e-05
3.71022e-05
3.60208e-05
3.64211e-05
3.71634e-05
3.71109e-05
3.63054e-05
3.71731e-05
3.94124e-05
3.71676e-05
3.67256e-05
3.70959e-05
3.71022e-05
3.64211e-05
3.60207e-05
3.71109e-05
3.71634e-05
3.63054e-05
3.73773e-05
3.73765e-05
3.7377e-05
3.7377e-05
3.73773e-05
3.73765e-05
3.7377e-05
3.7377e-05
3.73773e-05
3.73765e-05
3.7377e-05
3.7377e-05
3.71133e-05
3.71099e-05
3.64241e-05
3.64241e-05
3.71125e-05
3.71125e-05
3.64261e-05
3.71133e-05
3.71099e-05
3.64241e-05
3.64241e-05
3.71125e-05
3.71125e-05
3.64261e-05
3.71133e-05
3.71099e-05
3.64241e-05
3.64241e-05
3.71125e-05
3.71125e-05
3.64261e-05
3.71133e-05
3.71099e-05
3.64241e-05
3.64241e-05
3.71125e-05
3.71125e-05
3.64261e-05
3.73701e-05
3.73777e-05
3.73768e-05
3.73044e-05
3.70959e-05
3.71022e-05
3.60205e-05
3.64211e-05
3.71634e-05
3.71109e-05
3.63054e-05
3.71731e-05
3.94119e-05
3.71676e-05
3.67259e-05
3.70959e-05
3.71022e-05
3.64211e-05
3.60211e-05
3.71109e-05
3.71634e-05
3.63054e-05
3.71731e-05
3.94124e-05
3.71676e-05
3.67256e-05
3.7374e-05
3.72959e-05
3.72959e-05
5.31169e-05
3.71931e-05
3.70931e-05
3.72457e-05
3.72466e-05
3.71762e-05
3.71762e-05
5.3117e-05
3.71931e-05
3.73701e-05
3.73777e-05
3.73768e-05
3.73044e-05
3.70959e-05
3.71022e-05
3.64211e-05
3.6021e-05
3.71109e-05
3.71634e-05
3.63054e-05
3.70959e-05
3.71022e-05
3.64211e-05
3.60211e-05
3.71109e-05
3.71634e-05
3.63054e-05
3.71731e-05
3.94124e-05
3.71676e-05
3.67257e-05
3.71731e-05
3.94123e-05
3.71676e-05
3.67259e-05
3.70931e-05
3.72465e-05
3.7247e-05
3.71762e-05
3.71762e-05
5.31168e-05
3.71931e-05
5.31167e-05
3.71931e-05
5.51073e-05
6.49e-05
5.51091e-05
6.49029e-05
3.65914e-05
3.65914e-05
3.52791e-05
3.40741e-05
3.40745e-05
7.47325e-05
6.76829e-05
7.47363e-05
6.76868e-05
3.49732e-05
3.2036e-05
3.2036e-05
3.34689e-05
3.34678e-05
3.58856e-05
4.08629e-05
3.66026e-05
4.51387e-05
3.52757e-05
3.56358e-05
3.58928e-05
3.53772e-05
3.60473e-05
3.42287e-05
3.53823e-05
3.52758e-05
3.56353e-05
3.58928e-05
3.53772e-05
3.60472e-05
3.42295e-05
3.53823e-05
3.56371e-05
5.02055e-05
4.64475e-05
3.48931e-05
3.56375e-05
5.02045e-05
4.64472e-05
3.48936e-05
3.49994e-05
3.48728e-05
3.27113e-05
3.4402e-05
3.38548e-05
3.4886e-05
3.41794e-05
3.49994e-05
3.48728e-05
3.27121e-05
3.4402e-05
3.38538e-05
3.4886e-05
3.41796e-05
3.65905e-05
3.65925e-05
3.52791e-05
3.40756e-05
3.40722e-05
5.51085e-05
6.49022e-05
7.47332e-05
6.76853e-05
3.49732e-05
3.20371e-05
3.20337e-05
3.3467e-05
3.34704e-05
7.4735e-05
6.76847e-05
3.52759e-05
3.56355e-05
3.58928e-05
3.53772e-05
3.60472e-05
3.42288e-05
3.53823e-05
3.58859e-05
4.08636e-05
3.66021e-05
4.51416e-05
3.52758e-05
3.58928e-05
3.56357e-05
3.53772e-05
3.60472e-05
3.53823e-05
3.42286e-05
3.56368e-05
5.02055e-05
4.6447e-05
3.48943e-05
3.49993e-05
3.48728e-05
3.27112e-05
3.4402e-05
3.3854e-05
3.4886e-05
3.41798e-05
3.56368e-05
5.02076e-05
4.64487e-05
3.48939e-05
3.49993e-05
3.48728e-05
3.4402e-05
3.27109e-05
3.4886e-05
3.38544e-05
3.41796e-05
3.58859e-05
4.08615e-05
3.66024e-05
4.51408e-05
3.52758e-05
3.58928e-05
3.56354e-05
3.53772e-05
3.60472e-05
3.53823e-05
3.42295e-05
3.58858e-05
4.08645e-05
3.66021e-05
4.51404e-05
3.49995e-05
3.48728e-05
3.27104e-05
3.4402e-05
3.38545e-05
3.4886e-05
3.41797e-05
3.56374e-05
5.02052e-05
4.64449e-05
3.48937e-05
3.49994e-05
3.48728e-05
3.4402e-05
3.2712e-05
3.4886e-05
3.38537e-05
3.41795e-05
3.56369e-05
5.02059e-05
4.64494e-05
3.48935e-05
3.65917e-05
3.65904e-05
3.52791e-05
3.40733e-05
3.4075e-05
5.51095e-05
6.49016e-05
7.47374e-05
6.76861e-05
3.49732e-05
3.20346e-05
3.20377e-05
3.34688e-05
3.34674e-05
7.47347e-05
6.76868e-05
3.5276e-05
3.58928e-05
3.56353e-05
3.53772e-05
3.60472e-05
3.53823e-05
3.42293e-05
3.58865e-05
4.08638e-05
3.6602e-05
4.51409e-05
3.58868e-05
4.08629e-05
3.66023e-05
4.51397e-05
3.49992e-05
3.48729e-05
3.4402e-05
3.27119e-05
3.4886e-05
3.3854e-05
3.41797e-05
3.49993e-05
3.48728e-05
3.4402e-05
3.27118e-05
3.4886e-05
3.38535e-05
3.41798e-05
3.56361e-05
5.02067e-05
4.64491e-05
3.48942e-05
3.56363e-05
5.02062e-05
4.64471e-05
3.48945e-05
5.51091e-05
6.49014e-05
5.51091e-05
6.4902e-05
3.49732e-05
3.20376e-05
3.20363e-05
3.34667e-05
3.3467e-05
7.47338e-05
6.76861e-05
7.47353e-05
6.76876e-05
7.65467e-05
8.0861e-05
7.65509e-05
8.08653e-05
3.17169e-05
3.17145e-05
3.3264e-05
3.09204e-05
3.09207e-05
8.40066e-05
8.18511e-05
8.40103e-05
8.18546e-05
3.29547e-05
3.03033e-05
3.03037e-05
3.07457e-05
3.0742e-05
3.39689e-05
5.13461e-05
3.46788e-05
5.46156e-05
3.30534e-05
3.24567e-05
3.39297e-05
3.34086e-05
3.38956e-05
3.15554e-05
3.34679e-05
3.30536e-05
3.24556e-05
3.39297e-05
3.34085e-05
3.38956e-05
3.15564e-05
3.34679e-05
3.37817e-05
5.83607e-05
5.55905e-05
3.30856e-05
3.37818e-05
5.8361e-05
5.559e-05
3.30861e-05
3.27685e-05
3.29351e-05
3.0629e-05
3.25726e-05
3.13736e-05
3.30159e-05
3.19175e-05
3.27686e-05
3.29351e-05
3.06294e-05
3.25726e-05
3.13722e-05
3.30159e-05
3.19177e-05
3.17142e-05
3.17177e-05
3.3264e-05
3.09217e-05
3.09173e-05
7.65484e-05
8.0863e-05
8.40075e-05
8.1853e-05
3.29547e-05
3.03044e-05
3.03008e-05
3.07424e-05
3.07464e-05
8.40085e-05
8.18526e-05
3.30538e-05
3.24558e-05
3.39297e-05
3.34086e-05
3.38954e-05
3.15557e-05
3.34679e-05
3.39703e-05
5.13479e-05
3.46781e-05
5.46191e-05
3.30536e-05
3.39297e-05
3.24565e-05
3.34085e-05
3.38954e-05
3.34679e-05
3.15548e-05
3.37795e-05
5.83617e-05
5.55919e-05
3.30884e-05
3.27683e-05
3.29352e-05
3.06287e-05
3.25726e-05
3.13721e-05
3.30159e-05
3.19179e-05
3.37795e-05
5.83645e-05
5.55921e-05
3.3088e-05
3.27682e-05
3.2935e-05
3.25726e-05
3.06283e-05
3.30159e-05
3.13734e-05
3.19177e-05
3.39693e-05
5.1345e-05
3.46787e-05
5.46159e-05
3.30535e-05
3.39297e-05
3.24558e-05
3.34086e-05
3.38956e-05
3.34679e-05
3.15567e-05
3.39685e-05
5.1348e-05
3.46787e-05
5.46169e-05
3.27687e-05
3.29352e-05
3.06281e-05
3.25727e-05