/*--------------------------------*- C++ -*----------------------------------*\
| =========                 |                                                 |
| \\      /  F ield         | OpenFOAM: The Open Source CFD Toolbox           |
|  \\    /   O peration     | Version:  v1912                                 |
|   \\  /    A nd           | Website:  www.openfoam.com                      |
|    \\/     M anipulation  |                                                 |
\*---------------------------------------------------------------------------*/
FoamFile
{
    version     2.0;
    format      ascii;
    class       volScalarField;
    location    "100";
    object      nut;
}
// * * * * * * * * * * * * * * * * * * * * * * * * * * * * * * * * * * * * * //

dimensions      [0 2 -1 0 0 0 0];


internalField   nonuniform List<scalar> 
171728
(
0.000233973
0.000233114
0.000233114
0.000233425
0.000232531
0.000227796
0.000227795
0.000223863
0.000230513
0.000220312
0.000220309
0.000209106
0.000227795
0.000211659
0.000211655
0.000193791
0.000224429
0.000202646
0.00020264
0.000179723
0.000220548
0.00019377
0.000193763
0.000167363
0.0002163
0.000185274
0.000185266
0.000156618
0.000211816
0.000177231
0.000177223
0.000147245
0.000207203
0.000169684
0.000169675
0.000138995
0.00020254
0.000162604
0.000162595
0.000131665
0.000197884
0.000155939
0.00015593
0.000125008
0.000193268
0.000149633
0.000149624
0.000118868
0.000188673
0.000143648
0.000143639
0.000113222
0.000184139
0.000137931
0.000137922
0.000107988
0.000179693
0.000132438
0.000132429
0.000103114
0.000175319
0.000127155
0.000127145
9.84946e-05
0.000171019
0.000122117
0.000122107
9.43105e-05
0.000166764
0.000117339
0.000117328
9.07204e-05
0.000162586
0.000112886
0.000112875
8.78145e-05
0.000158465
0.000108849
0.000108838
8.55418e-05
0.000154551
0.000105438
0.000105428
8.40481e-05
0.000151208
0.000103031
0.000103023
8.33763e-05
0.000148243
0.00010101
0.000101001
8.29634e-05
0.000146152
9.97019e-05
9.96941e-05
8.24369e-05
0.000145398
9.93933e-05
9.93859e-05
8.24027e-05
0.000145509
9.95291e-05
9.95219e-05
8.26204e-05
0.000145631
9.97089e-05
9.9702e-05
8.27672e-05
0.000145709
9.97911e-05
9.97839e-05
8.28531e-05
0.00014574
9.9823e-05
9.98178e-05
8.28813e-05
0.000145759
9.98393e-05
9.98345e-05
8.28931e-05
0.000234265
0.000234448
0.000234449
0.000234265
0.000234449
0.000234449
0.000234274
0.000234274
0.000234274
0.000234274
0.000234448
0.000234448
0.000234265
0.000234448
0.000234449
0.000234265
0.000233425
0.000226204
0.000233114
0.000233112
0.000229354
0.000229349
0.000233425
0.000226205
0.000233112
0.000233111
0.000229351
0.000229348
0.000233113
0.000229356
0.000229353
0.000233425
0.000226202
0.000233112
0.000229356
0.000229351
0.000226202
0.000223863
0.000212236
0.000227792
0.000227787
0.000222323
0.000222318
0.000223864
0.00021224
0.00022779
0.000227786
0.000222324
0.000222315
0.000227791
0.00022233
0.000222322
0.000223862
0.000212233
0.00022779
0.000222327
0.000222322
0.000212234
0.000209108
0.000197072
0.000220304
0.000220299
0.000213872
0.000213867
0.000209109
0.000197077
0.000220305
0.000220295
0.000213876
0.000213862
0.000220302
0.000213883
0.00021387
0.000209104
0.000197068
0.000220304
0.000213879
0.000213875
0.000197069
0.000193794
0.000182895
0.000211647
0.000211642
0.000204885
0.00020488
0.000193798
0.000182902
0.000211652
0.000211637
0.000204893
0.000204874
0.000211645
0.0002049
0.000204883
0.00019379
0.000182891
0.000211651
0.000204895
0.000204892
0.000182892
0.000179727
0.000170292
0.00020263
0.000202624
0.00019594
0.000195935
0.000179731
0.000170299
0.000202639
0.000202618
0.000195952
0.000195928
0.000202627
0.000195959
0.000195937
0.000179722
0.000170288
0.000202637
0.000195952
0.000195951
0.000170288
0.000167368
0.000159275
0.000193751
0.000193745
0.000187335
0.00018733
0.000167373
0.000159282
0.000193763
0.000193738
0.00018735
0.000187323
0.000193748
0.000187357
0.000187332
0.000167363
0.00015927
0.000193762
0.000187349
0.000187349
0.00015927
0.000156623
0.000149653
0.000185251
0.000185246
0.000179171
0.000179165
0.000156629
0.00014966
0.000185267
0.000185238
0.000179189
0.000179158
0.000185248
0.000179196
0.000179168
0.000156618
0.000149648
0.000185266
0.000179188
0.000179188
0.000149648
0.00014725
0.000141153
0.000177206
0.0001772
0.000171497
0.000171491
0.000147255
0.00014116
0.000177225
0.000177193
0.000171518
0.000171484
0.000177203
0.000171525
0.000171495
0.000147245
0.000141148
0.000177223
0.000171516
0.000171517
0.000141147
0.000139001
0.000133599
0.000169656
0.00016965
0.000164303
0.000164297
0.000139007
0.000133606
0.000169677
0.000169642
0.000164326
0.00016429
0.000169653
0.000164333
0.000164301
0.000138996
0.000133593
0.000169676
0.000164324
0.000164326
0.000133593
0.000131672
0.000126742
0.000162573
0.000162568
0.000157537
0.000157532
0.000131677
0.000126749
0.000162597
0.00016256
0.000157562
0.000157524
0.000162571
0.00015757
0.000157536
0.000131666
0.000126735
0.000162597
0.000157561
0.000157562
0.000126735
0.000125015
0.000120421
0.000155906
0.000155901
0.000151145
0.000151139
0.000125021
0.000120428
0.000155932
0.000155893
0.000151172
0.000151131
0.000155905
0.00015118
0.000151144
0.000125009
0.000120414
0.000155932
0.000151171
0.000151172
0.000120413
0.000118875
0.000114493
0.000149599
0.000149593
0.00014508
0.000145074
0.000118881
0.0001145
0.000149626
0.000149585
0.000145108
0.000145067
0.000149597
0.000145117
0.00014508
0.000118869
0.000114486
0.000149626
0.000145107
0.000145109
0.000114485
0.000113228
0.000108902
0.000143613
0.000143606
0.0001393
0.000139294
0.000113234
0.000108909
0.00014364
0.000143598
0.000139329
0.000139287
0.000143611
0.000139338
0.0001393
0.000113222
0.000108896
0.000143641
0.000139329
0.00013933
0.000108895
0.000107995
0.000103766
0.000137895
0.000137888
0.000133754
0.000133748
0.000108
0.000103772
0.000137923
0.00013788
0.000133783
0.00013374
0.000137894
0.000133793
0.000133755
0.000107989
0.000103759
0.000137924
0.000133784
0.000133784
0.000103758
0.000103121
9.91878e-05
0.000132401
0.000132393
0.000128424
0.000128416
0.000103126
9.91937e-05
0.000132429
0.000132385
0.000128451
0.000128408
0.000132401
0.000128463
0.000128425
0.000103115
9.91817e-05
0.00013243
0.000128453
0.000128454
9.91807e-05
9.85011e-05
9.50482e-05
0.000127116
0.000127108
0.000123324
0.000123316
9.85068e-05
9.50542e-05
0.000127143
0.0001271
0.000123351
0.000123308
0.000127117
0.000123364
0.000123327
9.84955e-05
9.50425e-05
0.000127146
0.000123353
0.000123355
9.5042e-05
9.43162e-05
9.14968e-05
0.000122077
0.000122069
0.000118457
0.00011845
9.43219e-05
9.15024e-05
0.000122103
0.000122061
0.000118482
0.000118441
0.00012208
0.000118497
0.00011846
9.43109e-05
9.14913e-05
0.000122108
0.000118486
0.000118487
9.14912e-05
9.0725e-05
8.84546e-05
0.000117298
0.000117291
0.000113924
0.000113918
9.07308e-05
8.84601e-05
0.000117323
0.000117282
0.000113948
0.000113907
0.000117302
0.000113964
0.000113928
9.07208e-05
8.84498e-05
0.000117329
0.000113953
0.000113954
8.84498e-05
8.78188e-05
8.60485e-05
0.000112845
0.000112839
0.000109771
0.000109766
8.78242e-05
8.60538e-05
0.000112869
0.000112829
0.000109794
0.000109755
0.00011285
0.000109812
0.000109777
8.78145e-05
8.6044e-05
0.000112876
0.000109801
0.000109801
8.60442e-05
8.55458e-05
8.43914e-05
0.000108809
0.000108802
0.000106166
0.000106158
8.55509e-05
8.4397e-05
0.000108831
0.000108792
0.000106187
0.000106149
0.000108814
0.000106203
0.000106171
8.55418e-05
8.43872e-05
0.000108838
0.000106193
0.000106194
8.43876e-05
8.40524e-05
8.35861e-05
0.0001054
0.000105391
0.000103515
0.000103503
8.40578e-05
8.35904e-05
0.00010542
0.000105382
0.000103534
0.000103495
0.000105404
0.000103549
0.000103518
8.40483e-05
8.3583e-05
0.000105427
0.000103539
0.000103541
8.3583e-05
8.33807e-05
8.31482e-05
0.000102996
0.000102984
0.000101504
0.000101491
8.33848e-05
8.31531e-05
0.000103015
0.000102976
0.000101522
0.000101485
0.000103
0.000101537
0.000101508
8.33777e-05
8.31451e-05
0.000103022
0.000101528
0.000101528
8.31453e-05
8.29709e-05
8.25357e-05
0.000100978
0.000100965
9.99112e-05
9.9897e-05
8.29758e-05
8.25405e-05
0.000100995
0.000100958
9.99273e-05
9.98908e-05
0.000100982
9.99425e-05
9.99145e-05
8.29683e-05
8.2534e-05
0.000101002
9.99345e-05
9.99346e-05
8.25374e-05
8.24371e-05
8.24589e-05
9.96721e-05
9.96574e-05
9.93681e-05
9.93523e-05
8.24415e-05
8.24614e-05
9.96879e-05
9.96515e-05
9.93835e-05
9.93467e-05
9.96751e-05
9.9399e-05
9.93707e-05
8.24353e-05
8.2454e-05
9.96948e-05
9.93915e-05
9.93894e-05
8.24575e-05
8.24074e-05
8.26727e-05
9.9364e-05
9.9348e-05
9.94469e-05
9.94281e-05
8.24096e-05
8.2674e-05
9.93794e-05
9.93425e-05
9.94622e-05
9.94233e-05
9.93666e-05
9.94764e-05
9.9448e-05
8.24025e-05
8.26661e-05
9.93852e-05
9.9469e-05
9.94659e-05
8.26706e-05
8.26207e-05
8.28415e-05
9.95086e-05
9.94893e-05
9.96513e-05
9.96323e-05
8.26214e-05
8.28427e-05
9.95238e-05
9.94841e-05
9.96667e-05
9.96281e-05
9.95091e-05
9.96798e-05
9.96535e-05
8.26141e-05
8.28348e-05
9.95269e-05
9.9673e-05
9.96711e-05
8.28399e-05
8.27662e-05
8.29379e-05
9.96863e-05
9.96677e-05
9.9751e-05
9.97321e-05
8.27673e-05
8.29393e-05
9.97015e-05
9.96624e-05
9.97658e-05
9.97273e-05
9.96879e-05
9.97784e-05
9.97533e-05
8.27599e-05
8.29309e-05
9.97054e-05
9.9772e-05
9.97704e-05
8.29355e-05
8.28562e-05
8.2971e-05
9.9766e-05
9.9747e-05
9.97908e-05
9.97719e-05
8.28574e-05
8.29728e-05
9.97814e-05
9.97423e-05
9.98059e-05
9.97658e-05
9.97684e-05
9.98177e-05
9.97922e-05
8.28496e-05
8.29645e-05
9.97854e-05
9.98099e-05
9.98089e-05
8.29699e-05
8.28833e-05
8.29832e-05
9.97961e-05
9.97767e-05
9.98065e-05
9.97873e-05
8.2885e-05
8.29855e-05
9.98114e-05
9.97748e-05
9.98206e-05
9.97821e-05
9.98012e-05
9.98371e-05
9.98086e-05
8.28773e-05
8.29772e-05
9.98178e-05
9.98266e-05
9.9825e-05
8.29823e-05
8.28953e-05
9.9812e-05
9.97929e-05
8.28972e-05
9.98269e-05
9.9791e-05
9.98176e-05
8.28895e-05
9.98337e-05
0.00023473
0.000234746
0.000234729
0.000234729
0.000235117
0.000234798
0.000234702
0.000234727
0.000235117
0.000234798
0.000234727
0.000234702
0.000234867
0.000233566
0.000233566
0.000104561
3.8737e-05
0.000129255
3.98221e-05
2.16819e-05
2.28322e-05
0.000104552
3.8733e-05
0.000129251
3.98186e-05
0.000233973
0.000233973
0.000233973
0.000232934
0.000232934
0.000232934
0.000232934
0.000206171
9.34614e-05
0.000233969
0.000231987
0.000222635
8.70987e-05
0.000233611
2.16809e-05
2.28315e-05
0.000206165
0.000233969
9.3462e-05
0.000231986
0.000222642
0.000233611
8.71026e-05
4.78117e-05
4.78001e-05
0.000231345
4.38942e-05
4.38848e-05
7.25206e-05
4.2431e-05
8.13676e-05
4.37597e-05
2.47756e-05
2.54635e-05
7.25111e-05
4.24275e-05
8.1363e-05
4.37559e-05
0.000232531
0.00023253
0.00023253
0.000231082
0.000231082
0.000231081
0.000231081
0.000167422
7.94626e-05
0.00023208
0.00022609
0.000180148
7.45465e-05
0.000231374
2.47738e-05
2.5462e-05
0.000167418
0.00023208
7.94573e-05
0.000226088
0.000180142
0.000231373
7.45489e-05
3.91029e-05
3.90928e-05
0.000219597
3.65063e-05
3.64955e-05
5.62224e-05
4.55443e-05
6.10727e-05
4.64099e-05
2.60138e-05
2.61175e-05
5.62273e-05
4.55415e-05
6.10684e-05
4.6407e-05
0.000230513
0.000230512
0.000230512
0.000228539
0.00022854
0.000228538
0.000228539
0.000138504
6.74908e-05
0.000228638
0.000218223
0.000147971
6.35835e-05
0.00022753
2.60116e-05
2.61153e-05
0.0001385
0.000228637
6.7486e-05
0.000218219
0.000147962
0.000227527
6.35798e-05
3.31475e-05
3.31389e-05
0.000204622
3.19239e-05
3.19149e-05
4.69122e-05
4.7498e-05
4.98535e-05
4.80031e-05
2.60474e-05
2.59387e-05
4.69114e-05
4.74946e-05
4.98535e-05
4.80003e-05
0.000227795
0.000227794
0.000227794
0.000225324
0.000225325
0.000225322
0.000225323
0.000117441
5.82662e-05
0.000223709
0.000209414
0.000124494
5.55433e-05
0.000222296
2.60449e-05
2.59366e-05
0.000117438
0.000223708
5.82646e-05
0.000209409
0.000124488
0.000222293
5.554e-05
3.05535e-05
3.05456e-05
0.000189794
3.02431e-05
3.02353e-05
4.13813e-05
4.85831e-05
4.31939e-05
4.88401e-05
2.56752e-05
2.55189e-05
4.13804e-05
4.85796e-05
4.31944e-05
4.88371e-05
0.000224429
0.000224427
0.000224428
0.000221558
0.000221558
0.000221555
0.000221556
0.000102005
5.19256e-05
0.000217753
0.000200401
0.000107268
5.01214e-05
0.000216161
2.56726e-05
2.55169e-05
0.000102003
0.000217751
5.19241e-05
0.000200395
0.000107262
0.000216157
5.01188e-05
3.01249e-05
3.01188e-05
0.00017639
3.03485e-05
3.03406e-05
3.81152e-05
4.90951e-05
3.9199e-05
4.92005e-05
2.52372e-05
2.50927e-05
3.81142e-05
4.90919e-05
3.91991e-05
4.91974e-05
0.000220548
0.000220545
0.000220546
0.000217388
0.000217389
0.000217385
0.000217387
9.03926e-05
4.77743e-05
0.000211245
0.000191606
9.43503e-05
4.66472e-05
0.000209578
2.52346e-05
2.50909e-05
9.03915e-05
0.000211243
4.77731e-05
0.000191598
9.43445e-05
0.000209573
4.66449e-05
3.09184e-05
3.09127e-05
0.00016459
3.15209e-05
3.15144e-05
3.63395e-05
4.92778e-05
3.69026e-05
4.92998e-05
2.48478e-05
2.47312e-05
3.63383e-05
4.92747e-05
3.69024e-05
4.92967e-05
0.000216301
0.000216296
0.000216298
0.000212953
0.000212954
0.000212948
0.000212951
8.14928e-05
4.5195e-05
0.00020455
0.000183218
8.45684e-05
4.45798e-05
0.000202877
2.48454e-05
2.47294e-05
8.14923e-05
0.000204547
4.5194e-05
0.00018321
8.45627e-05
0.000202871
4.4577e-05
3.24763e-05
3.24712e-05
0.000154303
3.33064e-05
3.3301e-05
3.5647e-05
4.92968e-05
3.57898e-05
4.92874e-05
2.45339e-05
2.44456e-05
3.56446e-05
4.92936e-05
3.57894e-05
4.92842e-05
0.000211817
0.000211812
0.000211814
0.000208363
0.000208364
0.000208358
0.00020836
7.45557e-05
4.37933e-05
0.000197905
0.000175298
7.70239e-05
4.35435e-05
0.00019627
2.45316e-05
2.44437e-05
7.45553e-05
0.000197902
4.37914e-05
0.000175289
7.70185e-05
0.000196263
4.35409e-05
3.45157e-05
3.45113e-05
0.000145264
3.54731e-05
3.5469e-05
3.57363e-05
4.92617e-05
3.56134e-05
4.92504e-05
2.42931e-05
2.42278e-05
3.57342e-05
4.92586e-05
3.5612e-05
4.92473e-05
0.000207203
0.000207197
0.0002072
0.000203706
0.000203707
0.0002037
0.000203704
6.90958e-05
4.32606e-05
0.000191445
0.000167872
7.11178e-05
4.32513e-05
0.000189863
2.42911e-05
2.42258e-05
6.90949e-05
0.000191443
4.32593e-05
0.000167864
7.11129e-05
0.000189856
4.32495e-05
3.68421e-05
3.68385e-05
0.000137267
3.78732e-05
3.78704e-05
3.65374e-05
4.92331e-05
3.61879e-05
4.9229e-05
2.41144e-05
2.4067e-05
3.65355e-05
4.92301e-05
3.61867e-05
4.92261e-05
0.000202541
0.000202534
0.000202537
0.000199044
0.000199045
0.000199037
0.000199041
6.47979e-05
4.33973e-05
0.000185198
0.000160901
6.64344e-05
4.35798e-05
0.000183675
2.41125e-05
2.4065e-05
6.47957e-05
0.000185195
4.33966e-05
0.000160893
6.64313e-05
0.000183668
4.35785e-05
3.93247e-05
3.9322e-05
0.000130089
4.03866e-05
4.03852e-05
3.79698e-05
4.92287e-05
3.74169e-05
4.92338e-05
2.3985e-05
2.39514e-05
3.79967e-05
4.92256e-05
3.74157e-05
4.92308e-05
0.000197885
0.000197877
0.000197881
0.000194414
0.000194416
0.000194408
0.000194412
6.14474e-05
4.40766e-05
0.000179209
0.000154332
6.26899e-05
4.44178e-05
0.000177757
2.39831e-05
2.39494e-05
6.14464e-05
0.000179206
4.40763e-05
0.000154323
6.26877e-05
0.00017775
4.44169e-05
4.18591e-05
4.18574e-05
0.000123515
4.29168e-05
4.29166e-05
4.00538e-05
4.92462e-05
3.91856e-05
4.92592e-05
2.38934e-05
2.387e-05
4.00774e-05
4.92434e-05
3.91517e-05
4.92564e-05
0.000193269
0.000193261
0.000193265
0.000189821
0.000189822
0.000189814
0.000189818
5.89574e-05
4.52051e-05
0.000173501
0.000148108
5.97985e-05
4.56779e-05
0.000172115
2.38914e-05
2.38681e-05
5.8956e-05
0.000173498
4.52051e-05
0.000148099
5.97967e-05
0.000172109
4.56773e-05
4.43606e-05
4.436e-05
0.000117411
4.53854e-05
4.53863e-05
4.26247e-05
4.92795e-05
4.14633e-05
4.92959e-05
2.38293e-05
2.38131e-05
4.26283e-05
4.92768e-05
4.14525e-05
4.92932e-05
0.000188674
0.000188666
0.00018867
0.000185265
0.000185266
0.000185258
0.000185262
5.71688e-05
4.6706e-05
0.000168045
0.000142196
5.76809e-05
4.72862e-05
0.000166718
2.38273e-05
2.38111e-05
5.71667e-05
0.000168043
4.67061e-05
0.000142187
5.76785e-05
0.000166711
4.72858e-05
4.67617e-05
4.67619e-05
0.000111639
4.77326e-05
4.77343e-05
4.55748e-05
4.93184e-05
4.42356e-05
4.9335e-05
2.37842e-05
2.37728e-05
4.55668e-05
4.93158e-05
4.42414e-05
4.93324e-05
0.00018414
0.000184132
0.000184137
0.000180797
0.000180798
0.000180789
0.000180794
5.6009e-05
4.85051e-05
0.000162807
0.000136539
5.62995e-05
4.91675e-05
0.000161528
2.37822e-05
2.37709e-05
5.60071e-05
0.000162805
4.85054e-05
0.00013653
5.62975e-05
0.000161522
4.91671e-05
4.90142e-05
4.90149e-05
0.000106259
4.99189e-05
4.99212e-05
4.88239e-05
4.93566e-05
4.73882e-05
4.93719e-05
2.37515e-05
2.37432e-05
4.88165e-05
4.9354e-05
4.7394e-05
4.93693e-05
0.000179695
0.000179686
0.000179691
0.000176409
0.000176411
0.000176401
0.000176407
5.55058e-05
5.05268e-05
0.000157754
0.000131101
5.55816e-05
5.12467e-05
0.000156519
2.37496e-05
2.37412e-05
5.55041e-05
0.000157753
5.05271e-05
0.000131091
5.55798e-05
0.000156513
5.12464e-05
5.10902e-05
5.10912e-05
0.000101413
5.19246e-05
5.19271e-05
5.22534e-05
4.93915e-05
5.07728e-05
4.94054e-05
2.37263e-05
2.37197e-05
5.22465e-05
4.9389e-05
5.07783e-05
4.94028e-05
0.000175321
0.000175312
0.000175318
0.000172092
0.000172093
0.000172084
0.000172089
5.56409e-05
5.26984e-05
0.000152854
0.000125883
5.5508e-05
5.34527e-05
0.000151656
2.37245e-05
2.37179e-05
5.56393e-05
0.000152853
5.26987e-05
0.000125873
5.55064e-05
0.000151651
5.34524e-05
5.29817e-05
5.29829e-05
9.70496e-05
5.3745e-05
5.37476e-05
5.57214e-05
4.94231e-05
5.42529e-05
4.94358e-05
2.37056e-05
2.37e-05
5.57158e-05
4.94206e-05
5.4258e-05
4.94331e-05
0.000171022
0.000171012
0.000171018
0.000167824
0.000167826
0.000167816
0.000167822
5.63886e-05
5.49526e-05
0.000148112
0.000120905
5.6057e-05
5.57209e-05
0.000146947
2.37038e-05
2.36982e-05
5.63873e-05
0.000148112
5.49528e-05
0.000120894
5.60556e-05
0.000146942
5.57206e-05
5.46919e-05
5.46929e-05
9.31915e-05
5.53875e-05
5.53902e-05
5.90938e-05
4.94517e-05
5.76887e-05
4.94633e-05
2.36875e-05
2.36829e-05
5.90894e-05
4.94491e-05
5.76931e-05
4.94607e-05
0.000166767
0.000166757
0.000166764
0.000163626
0.000163627
0.000163617
0.000163624
5.77068e-05
5.72297e-05
0.000143483
0.000116192
5.71932e-05
5.79941e-05
0.000142346
2.36857e-05
2.36809e-05
5.77055e-05
0.000143482
5.72298e-05
0.000116181
5.71919e-05
0.000142341
5.79937e-05
5.62326e-05
5.62334e-05
8.98912e-05
5.68625e-05
5.6865e-05
6.2253e-05
4.94783e-05
6.09609e-05
4.94863e-05
2.36716e-05
2.36665e-05
6.22507e-05
4.94754e-05
6.0964e-05
4.94834e-05
0.00016259
0.00016258
0.000162587
0.000159492
0.000159494
0.000159483
0.000159491
5.9533e-05
5.94771e-05
0.000138983
0.000111834
5.88614e-05
6.02127e-05
0.000137885
2.36696e-05
2.36647e-05
5.95319e-05
0.000138983
5.94772e-05
0.000111823
5.88602e-05
0.00013788
6.02121e-05
5.76111e-05
5.76118e-05
8.71606e-05
5.81536e-05
5.81568e-05
6.50625e-05
4.94933e-05
6.39471e-05
4.95002e-05
2.36561e-05
2.36528e-05
6.50619e-05
4.94907e-05
6.39482e-05
4.9498e-05
0.00015847
0.000158459
0.000158467
0.000155487
0.000155489
0.000155478
0.000155485
6.17515e-05
6.16199e-05
0.000134638
0.00010792
6.09668e-05
6.23176e-05
0.000133592
2.36542e-05
2.36508e-05
6.17504e-05
0.000134638
6.16199e-05
0.000107909
6.09657e-05
0.000133587
6.23172e-05
5.88342e-05
5.88353e-05
8.5112e-05
5.93355e-05
5.93391e-05
6.71036e-05
4.95084e-05
6.63952e-05
4.95075e-05
2.3644e-05
2.36397e-05
6.71079e-05
4.95064e-05
6.63935e-05
4.95056e-05
0.000154557
0.000154546
0.000154553
0.000152002
0.000152004
0.000151993
0.000152001
6.41125e-05
6.35878e-05
0.000130641
0.000104742
6.33387e-05
6.4143e-05
0.000129767
2.36418e-05
2.36374e-05
6.41111e-05
0.000130642
6.35887e-05
0.000104732
6.33372e-05
0.000129763
6.41447e-05
5.98958e-05
5.98975e-05
8.39124e-05
6.01781e-05
6.01818e-05
6.80213e-05
4.94896e-05
6.77481e-05
4.94774e-05
2.36292e-05
2.36247e-05
6.80289e-05
4.94876e-05
6.77499e-05
4.94756e-05
0.000151213
0.000151202
0.000151211
0.000148942
0.000148943
0.000148932
0.000148941
6.5912e-05
6.49812e-05
0.000127444
0.000102535
6.54237e-05
6.52736e-05
0.000126744
2.3627e-05
2.36225e-05
6.59127e-05
0.000127445
6.49819e-05
0.000102526
6.54243e-05
0.000126742
6.5272e-05
6.04847e-05
6.04835e-05
8.33506e-05
6.05821e-05
6.05811e-05
6.82965e-05
4.94513e-05
6.82539e-05
4.94404e-05
2.36161e-05
2.36138e-05
6.83016e-05
4.94494e-05
6.8259e-05
4.94387e-05
0.000148248
0.000148237
0.000148246
0.000146553
0.000146555
0.000146544
0.000146553
6.67268e-05
6.56006e-05
0.00012478
0.000100594
6.65354e-05
6.56341e-05
0.000124216
2.36136e-05
2.36113e-05
6.67278e-05
0.000124781
6.56078e-05
0.000100586
6.65357e-05
0.000124213
6.56423e-05
6.06532e-05
6.06523e-05
8.27817e-05
6.06808e-05
6.06811e-05
6.83265e-05
4.94246e-05
6.83064e-05
4.94196e-05
2.36089e-05
2.36082e-05
6.83358e-05
4.94228e-05
6.83148e-05
4.94178e-05
0.000146157
0.000146146
0.000146155
0.00014548
0.000145484
0.000145473
0.000145481
6.69195e-05
6.56586e-05
0.000122916
9.95354e-05
6.68633e-05
6.56822e-05
0.000122657
2.36062e-05
2.36056e-05
6.69234e-05
0.000122916
6.56677e-05
9.95276e-05
6.68667e-05
0.000122655
6.56898e-05
6.06634e-05
6.06639e-05
8.24834e-05
6.06718e-05
6.06725e-05
6.83265e-05
4.94128e-05
6.83123e-05
4.9411e-05
2.36057e-05
2.3606e-05
6.83318e-05
4.94111e-05
6.83204e-05
4.94094e-05
0.000145404
0.000145393
0.000145402
0.00014545
0.000145446
0.000145435
0.000145444
6.7084e-05
6.56954e-05
0.000122352
9.93973e-05
6.70437e-05
6.57118e-05
0.000122362
2.3603e-05
2.36034e-05
6.70891e-05
0.000122351
6.5703e-05
9.93898e-05
6.70488e-05
0.000122361
6.5719e-05
6.06576e-05
6.06581e-05
8.25591e-05
6.06622e-05
6.06626e-05
6.83175e-05
4.94088e-05
6.83128e-05
4.94085e-05
2.36045e-05
2.36053e-05
6.83264e-05
4.94072e-05
6.83192e-05
4.9407e-05
0.000145504
0.000145494
0.000145502
0.000145603
0.000145602
0.000145592
0.000145601
6.71537e-05
6.57143e-05
0.000122417
9.9593e-05
6.71395e-05
6.57263e-05
0.000122492
2.36019e-05
2.36027e-05
6.71622e-05
0.000122416
6.57218e-05
9.95858e-05
6.71473e-05
0.00012249
6.57336e-05
6.06544e-05
6.0654e-05
8.27684e-05
6.06562e-05
6.06567e-05
6.82951e-05
4.94077e-05
6.82954e-05
4.94079e-05
2.36043e-05
2.36052e-05
6.83077e-05
4.94063e-05
6.83084e-05
4.94066e-05
0.00014564
0.00014563
0.000145638
0.0001457
0.000145697
0.000145687
0.000145696
6.71819e-05
6.57231e-05
0.000122611
9.97424e-05
6.7175e-05
6.57328e-05
0.000122648
2.36016e-05
2.36025e-05
6.719e-05
0.000122613
6.57304e-05
9.97359e-05
6.71837e-05
0.000122646
6.57401e-05
6.06456e-05
6.06464e-05
8.28925e-05
6.06488e-05
6.06495e-05
6.82886e-05
4.94076e-05
6.82794e-05
4.94079e-05
2.36044e-05
2.36053e-05
6.82998e-05
4.94063e-05
6.82909e-05
4.94067e-05
0.000145711
0.000145701
0.00014571
0.000145737
0.000145734
0.000145724
0.000145733
6.71961e-05
6.5728e-05
0.00012269
9.9804e-05
6.71928e-05
6.57371e-05
0.00012271
2.36016e-05
2.36026e-05
6.72033e-05
0.000122691
6.57355e-05
9.97973e-05
6.72008e-05
0.000122708
6.57445e-05
6.06429e-05
6.06437e-05
8.29587e-05
6.06475e-05
6.06481e-05
6.82908e-05
4.94077e-05
6.82815e-05
4.9408e-05
2.36044e-05
2.36053e-05
6.83013e-05
4.94065e-05
6.82922e-05
4.94069e-05
0.000145741
0.000145732
0.00014574
0.000145754
0.000145752
0.000145743
0.000145752
6.72074e-05
6.57313e-05
0.000122724
9.98299e-05
6.72052e-05
6.574e-05
0.000122733
2.36017e-05
2.36027e-05
6.7215e-05
0.000122723
6.57388e-05
9.98211e-05
6.72133e-05
0.000122734
6.57473e-05
6.06435e-05
6.06438e-05
8.29759e-05
6.06482e-05
6.06482e-05
6.82925e-05
4.94077e-05
6.82832e-05
4.94081e-05
2.36044e-05
2.36054e-05
6.83031e-05
4.94066e-05
6.82961e-05
4.9407e-05
0.000145758
0.000145746
0.000145755
6.71706e-05
6.57334e-05
0.000122745
9.98458e-05
6.72135e-05
6.57339e-05
0.000122743
2.36017e-05
2.36028e-05
6.71174e-05
0.000122736
6.57408e-05
9.9891e-05
6.72209e-05
0.000122811
6.57086e-05
6.06444e-05
6.0644e-05
8.30085e-05
6.06282e-05
6.06279e-05
0.000234867
0.000233564
0.000233565
2.32581e-05
0.000214158
2.3257e-05
0.000214161
0.000234435
5.13453e-05
5.13289e-05
0.000229989
0.00022999
0.000235117
0.000234798
0.000234702
0.000234727
0.000235117
0.000234798
0.000234702
0.000234727
0.000234476
4.02623e-05
0.000218811
0.000147941
0.000234476
4.02618e-05
0.000218811
0.000147948
0.00023389
0.000234475
9.97658e-05
0.000234271
0.000233358
0.000234597
0.000228487
0.00023389
0.000234474
9.97565e-05
0.000234271
0.000233358
0.000234597
0.000228486
0.000234867
0.000233565
0.000233565
2.32578e-05
0.000214166
0.000234435
5.13394e-05
5.13309e-05
0.000229988
0.00022999
2.32577e-05
0.000214169
0.000235117
0.000234798
0.000234702
0.000234727
0.000235117
0.000234798
0.000234727
0.000234702
0.000234476
4.02591e-05
0.000218812
0.000147917
0.000233889
0.000234474
9.97446e-05
0.00023427
0.000233358
0.000234597
0.000228484
0.000234476
4.02586e-05
0.000218812
0.000147932
0.00023389
0.000234474
0.000234271
9.9752e-05
0.000234597
0.000233358
0.000228486
0.00023473
0.000234746
0.000234729
0.000234729
0.00023473
0.000234746
0.000234729
0.000234729
0.00023473
0.000234746
0.000234729
0.000234729
0.000234591
0.000234574
0.000234252
0.000234252
0.000234592
0.000234592
0.000234252
0.000234591
0.000234574
0.000234252
0.000234252
0.000234592
0.000234592
0.000234252
0.000234591
0.000234574
0.000234252
0.000234252
0.000234592
0.000234592
0.000234252
0.000234591
0.000234574
0.000234253
0.000234252
0.000234592
0.000234592
0.000234252
0.000235117
0.000234798
0.000234727
0.000234702
0.00023389
0.000234474
9.97471e-05
0.00023427
0.000233358
0.000234597
0.000228485
0.000234476
4.02598e-05
0.000218814
0.000147933
0.000233889
0.000234475
0.000234271
9.9762e-05
0.000234597
0.000233358
0.000228487
0.000234476
4.02594e-05
0.000218813
0.000147941
0.000234867
0.000233566
0.000233566
2.3257e-05
0.000214162
0.000234435
5.13302e-05
5.13361e-05
0.00022999
0.000229992
2.32574e-05
0.00021417
0.000235117
0.000234798
0.000234727
0.000234702
0.000233889
0.000234474
0.00023427
9.97564e-05
0.000234596
0.000233359
0.000228486
0.000233889
0.000234474
0.00023427
9.9746e-05
0.000234597
0.000233358
0.000228485
0.000234476
4.02589e-05
0.000218815
0.000147919
0.000234476
4.02587e-05
0.00021881
0.000147905
0.000234435
5.13401e-05
5.13278e-05
0.000229991
0.000229991
2.32575e-05
0.000214169
2.3257e-05
0.000214163
2.16823e-05
2.28333e-05
2.1681e-05
2.28317e-05
4.78157e-05
4.78017e-05
0.000231346
4.38967e-05
4.38837e-05
2.44817e-05
2.33069e-05
2.448e-05
2.33057e-05
0.000229665
4.00116e-05
4.00003e-05
4.30233e-05
4.30069e-05
0.000104573
3.87362e-05
0.00012924
3.98202e-05
0.000206175
9.34719e-05
0.000233969
0.000231986
0.000222629
8.71047e-05
0.000233611
0.000206177
9.34557e-05
0.000233969
0.000231982
0.000222626
8.70929e-05
0.000233611
9.83229e-05
4.19585e-05
4.03744e-05
8.55349e-05
9.83152e-05
4.1957e-05
4.03734e-05
8.55366e-05
0.000200027
0.000230748
8.08096e-05
0.000232682
8.55613e-05
0.000233189
0.000185572
0.000200026
0.000230744
8.08014e-05
0.000232682
8.55434e-05
0.000233189
0.000185575
4.78044e-05
4.78145e-05
0.000231346
4.3889e-05
4.38891e-05
2.1682e-05
2.28333e-05
2.44807e-05
2.33063e-05
0.000229665
4.00056e-05
4.00021e-05
4.30093e-05
4.30209e-05
2.44819e-05
2.33071e-05
0.000206165
9.34503e-05
0.000233969
0.000231983
0.000222629
8.70874e-05
0.000233611
0.000104554
3.87325e-05
0.00012927
3.9818e-05
0.000206166
0.000233969
9.34543e-05
0.000231982
0.000222633
0.000233611
8.70857e-05
9.83191e-05
4.19548e-05
4.03708e-05
8.55301e-05
0.000200025
0.000230746
8.07959e-05
0.000232682
8.55421e-05
0.000233189
0.00018557
9.83203e-05
4.1954e-05
4.03701e-05
8.5528e-05
0.000200025
0.000230743
0.000232682
8.07913e-05
0.000233188
8.55422e-05
0.000185566
0.00010456
3.87335e-05
0.00012926
3.9821e-05
0.000206171
0.000233969
9.34631e-05
0.000231985
0.000222639
0.000233611
8.71018e-05
0.000104558
3.87342e-05
0.00012928
3.98191e-05
0.000200028
0.00023075
8.08052e-05
0.000232683
8.55569e-05
0.000233189
0.000185573
9.83204e-05
4.19572e-05
4.03719e-05
8.55309e-05
0.000200028
0.000230748
0.000232682
8.08094e-05
0.000233189
8.55543e-05
0.000185572
9.83259e-05
4.19558e-05
4.03724e-05
8.5532e-05
4.78039e-05
4.78102e-05
0.000231345
4.38807e-05
4.38988e-05
2.16814e-05
2.28323e-05
2.44796e-05
2.33048e-05
0.000229665
3.99958e-05
4.0013e-05
4.30108e-05
4.3016e-05
2.44807e-05
2.33063e-05
0.000206162
0.000233969
9.34491e-05
0.000231983
0.000222638
0.000233611
8.70903e-05
0.000104539
3.87333e-05
0.000129287
3.98192e-05
0.000104535
3.87327e-05
0.000129273
3.98182e-05
0.000200026
0.00023075
0.000232682
8.08094e-05
0.000233189
8.55527e-05
0.000185569
0.000200027
0.000230746
0.000232682
8.08004e-05
0.000233189
8.5541e-05
0.000185568
9.83348e-05
4.19554e-05
4.0372e-05
8.55277e-05
9.83337e-05
4.19547e-05
4.03706e-05
8.55273e-05
2.16818e-05
2.28323e-05
2.16809e-05
2.28317e-05
0.000229665
4.00134e-05
4.00015e-05
4.30197e-05
4.30059e-05
2.44809e-05
2.33065e-05
2.44799e-05
2.33059e-05
2.47763e-05
2.54646e-05
2.47745e-05
2.54628e-05
3.91105e-05
3.90932e-05
0.000219599
3.65044e-05
3.64957e-05
2.59546e-05
2.56199e-05
2.59531e-05
2.56181e-05
0.000216772
3.37774e-05
3.37699e-05
3.56659e-05
3.56488e-05
7.25231e-05
4.243e-05
8.13693e-05
4.37585e-05
0.00016742
7.9464e-05
0.000232079
0.000226085
0.000180147
7.45486e-05
0.000231374
0.000167423
7.94484e-05
0.000232079
0.00022608
0.000180149
7.45425e-05
0.000231373
6.95754e-05
4.52343e-05
4.41483e-05
6.318e-05
6.95776e-05
4.5234e-05
4.4147e-05
6.31828e-05
0.000162804
0.000224256
6.87251e-05
0.00022965
7.32145e-05
0.000230563
0.000151811
0.000162808
0.000224251
6.87206e-05
0.000229649
7.31983e-05
0.000230563
0.000151814
3.90963e-05
3.91094e-05
0.000219601
3.65008e-05
3.64953e-05
2.47764e-05
2.54648e-05
2.5954e-05
2.56191e-05
0.000216773
3.37737e-05
3.37726e-05
3.56523e-05
3.56622e-05
2.5955e-05
2.56198e-05
0.000167419
7.9446e-05
0.000232079
0.000226084
0.000180141
7.45394e-05
0.000231373
7.25086e-05
4.24263e-05
8.1362e-05
4.37552e-05
0.000167416
0.000232078
7.9448e-05
0.000226078
0.00018014
0.000231373
7.45308e-05
6.95792e-05
4.52314e-05
4.41449e-05
6.31798e-05
0.000162798
0.000224255
6.87173e-05
0.000229649
7.31976e-05
0.000230564
0.000151811
6.95784e-05
4.52302e-05
4.41429e-05
6.3177e-05
0.000162795
0.000224248
0.000229648
6.87117e-05
0.000230562
7.31961e-05
0.000151806
7.25159e-05
4.24292e-05
8.13701e-05
4.37585e-05
0.000167419
0.000232079
7.9457e-05
0.000226084
0.000180146
0.000231373
7.45487e-05
7.25189e-05
4.24289e-05
8.13641e-05
4.37568e-05
0.000162807
0.000224261