/*--------------------------------*- C++ -*----------------------------------*\
| =========                 |                                                 |
| \\      /  F ield         | OpenFOAM: The Open Source CFD Toolbox           |
|  \\    /   O peration     | Version:  v1912                                 |
|   \\  /    A nd           | Website:  www.openfoam.com                      |
|    \\/     M anipulation  |                                                 |
\*---------------------------------------------------------------------------*/
FoamFile
{
    version     2.0;
    format      ascii;
    class       volScalarField;
    location    "120";
    object      epsilon;
}
// * * * * * * * * * * * * * * * * * * * * * * * * * * * * * * * * * * * * * //

dimensions      [0 2 -3 0 0 0 0];


internalField   nonuniform List<scalar> 
57062
(
1.21426e-07
2.93856e-07
2.93911e-07
4.92189e-07
1.21434e-07
2.93923e-07
2.93974e-07
4.92042e-07
1.21445e-07
2.93978e-07
2.94035e-07
4.92111e-07
1.21456e-07
2.94021e-07
2.94083e-07
4.92202e-07
1.21465e-07
2.94057e-07
2.94123e-07
4.92282e-07
1.21474e-07
2.94078e-07
2.94165e-07
4.92368e-07
1.21483e-07
2.94099e-07
2.94186e-07
4.9245e-07
1.21491e-07
2.94114e-07
2.94203e-07
4.92526e-07
1.21498e-07
2.94145e-07
2.94245e-07
4.92594e-07
1.21504e-07
2.94162e-07
2.94252e-07
4.92649e-07
1.2151e-07
2.94184e-07
2.94266e-07
4.92689e-07
1.21517e-07
2.94201e-07
2.9428e-07
4.92725e-07
1.21525e-07
2.94214e-07
2.94297e-07
4.92751e-07
1.21533e-07
2.9423e-07
2.94311e-07
4.92778e-07
1.21536e-07
2.94247e-07
2.94319e-07
4.92804e-07
1.21538e-07
2.94252e-07
2.94317e-07
4.92827e-07
1.21536e-07
2.94247e-07
2.94317e-07
4.92833e-07
1.21534e-07
2.9425e-07
2.94311e-07
4.92848e-07
1.21532e-07
2.94239e-07
2.94308e-07
4.92858e-07
1.21531e-07
2.94236e-07
2.94302e-07
4.92864e-07
1.21529e-07
2.94223e-07
2.94289e-07
4.92843e-07
1.21525e-07
2.94216e-07
2.9428e-07
4.92841e-07
1.21521e-07
2.94215e-07
2.94276e-07
4.92824e-07
1.21517e-07
2.94215e-07
2.94277e-07
4.92809e-07
1.21508e-07
2.942e-07
2.94266e-07
4.92825e-07
1.21491e-07
2.94152e-07
2.94225e-07
4.92774e-07
1.21465e-07
2.94069e-07
2.94145e-07
4.92643e-07
1.21443e-07
2.93958e-07
2.94033e-07
4.92516e-07
1.21354e-07
2.93871e-07
2.93941e-07
4.92271e-07
1.16873e-07
2.72212e-07
2.72235e-07
4.61626e-07
4.9062e-07
2.93965e-07
2.94009e-07
4.90522e-07
2.93909e-07
2.93999e-07
2.93836e-07
2.93952e-07
4.90619e-07
2.93897e-07
2.93902e-07
4.90437e-07
4.92162e-07
4.90405e-07
2.93975e-07
2.9402e-07
2.94027e-07
2.94083e-07
4.9217e-07
4.90374e-07
2.9392e-07
2.94011e-07
2.93985e-07
2.94077e-07
2.93964e-07
2.93908e-07
2.94024e-07
4.92185e-07
4.90433e-07
2.93914e-07
2.93959e-07
2.93977e-07
4.90407e-07
4.92015e-07
4.90417e-07
2.94037e-07
2.94096e-07
2.94085e-07
2.94147e-07
4.92026e-07
4.90349e-07
2.93996e-07
2.9409e-07
2.94047e-07
2.94151e-07
2.94036e-07
2.93965e-07
2.94093e-07
4.92082e-07
4.90403e-07
2.93989e-07
2.94021e-07
2.94046e-07
4.90594e-07
4.91963e-07
4.90515e-07
2.94094e-07
2.94156e-07
2.94132e-07
2.94195e-07
4.91911e-07
4.90486e-07
2.94057e-07
2.94163e-07
2.941e-07
2.9421e-07
2.94102e-07
2.94014e-07
2.94147e-07
4.92013e-07
4.90509e-07
2.94056e-07
2.94074e-07
2.941e-07
4.90711e-07
4.92006e-07
4.90634e-07
2.94137e-07
2.94199e-07
2.9417e-07
2.94235e-07
4.91962e-07
4.90641e-07
2.94107e-07
2.94217e-07
2.94139e-07
2.94255e-07
2.94153e-07
2.9405e-07
2.94194e-07
4.92029e-07
4.90657e-07
2.94106e-07
2.94116e-07
2.94147e-07
4.9078e-07
4.92093e-07
4.9075e-07
2.9417e-07
2.94223e-07
2.94206e-07
2.9425e-07
4.92093e-07
4.90746e-07
2.94139e-07
2.94257e-07
2.94175e-07
2.94289e-07
2.94184e-07
2.94069e-07
2.94212e-07
4.92134e-07
4.90768e-07
2.94137e-07
2.9416e-07
2.94166e-07
4.90847e-07
4.92221e-07
4.90842e-07
2.94195e-07
2.94239e-07
2.94227e-07
2.9427e-07
4.92229e-07
4.90807e-07
2.94164e-07
2.94285e-07
2.94195e-07
2.9432e-07
2.94201e-07
2.9409e-07
2.94226e-07
4.92257e-07
4.90852e-07
2.94156e-07
2.94174e-07
2.94181e-07
4.90906e-07
4.92348e-07
4.90883e-07
2.9422e-07
2.94262e-07
2.94255e-07
2.9429e-07
4.92346e-07
4.90804e-07
2.94188e-07
2.94309e-07
2.94222e-07
2.94339e-07
2.94214e-07
2.94108e-07
2.94248e-07
4.92362e-07
4.90915e-07
2.9417e-07
2.94198e-07
2.94204e-07
4.9096e-07
4.92419e-07
4.9091e-07
2.94245e-07
2.94279e-07
2.94275e-07
2.94307e-07
4.92379e-07
4.9081e-07
2.94212e-07
2.9433e-07
2.9424e-07
2.94363e-07
2.9424e-07
2.9414e-07
2.9427e-07
4.92453e-07
4.90948e-07
2.94195e-07
2.94236e-07
2.94216e-07
4.91008e-07
4.92438e-07
4.90963e-07
2.94267e-07
2.943e-07
2.94293e-07
2.94336e-07
4.92362e-07
4.90879e-07
2.9423e-07
2.94352e-07
2.94254e-07
2.94365e-07
2.9426e-07
2.94152e-07
2.94287e-07
4.925e-07
4.90986e-07
2.94222e-07
2.94246e-07
2.94258e-07
4.91048e-07
4.92457e-07
4.91021e-07
2.9428e-07
2.94325e-07
2.94293e-07
2.94344e-07
4.92386e-07
4.90952e-07
2.94243e-07
2.94346e-07
2.94268e-07
2.94391e-07
2.94278e-07
2.94175e-07
2.94316e-07
4.9252e-07
4.91039e-07
2.94246e-07
2.94257e-07
2.94267e-07
4.91083e-07
4.92496e-07
4.91072e-07
2.94278e-07
2.94345e-07
2.94326e-07
2.94387e-07
4.9244e-07
4.91004e-07
2.94259e-07
2.94382e-07
2.94293e-07
2.94403e-07
2.9431e-07
2.94195e-07
2.94341e-07
4.92553e-07
4.91078e-07
2.94255e-07
2.94273e-07
2.94287e-07
4.91125e-07
4.92552e-07
4.91102e-07
2.94317e-07
2.94378e-07
2.94342e-07
2.94405e-07
4.92498e-07
4.91033e-07
2.94284e-07
2.9439e-07
2.94312e-07
2.94424e-07
2.94329e-07
2.94206e-07
2.94349e-07
4.92583e-07
4.91109e-07
2.94275e-07
2.94288e-07
2.94299e-07
4.91156e-07
4.92588e-07
4.91134e-07
2.94333e-07
2.94394e-07
2.94361e-07
2.94418e-07
4.92538e-07
4.91052e-07
2.94302e-07
2.94415e-07
2.94325e-07
2.94438e-07
2.94338e-07
2.94221e-07
2.94361e-07
4.92611e-07
4.91141e-07
2.9429e-07
2.94305e-07
2.94321e-07
4.91186e-07
4.92622e-07
4.91155e-07
2.94351e-07
2.94409e-07
2.94363e-07
2.94432e-07
4.92565e-07
4.91075e-07
2.94314e-07
2.94427e-07
2.94324e-07
2.94451e-07
2.9435e-07
2.94241e-07
2.9437e-07
4.92641e-07
4.91172e-07
2.94309e-07
2.94311e-07
2.94322e-07
4.91206e-07
4.92647e-07
4.91157e-07
2.94342e-07
2.94419e-07
2.94363e-07
2.94429e-07
4.92594e-07
4.91087e-07
2.94303e-07
2.94438e-07
2.94334e-07
2.9445e-07
2.9436e-07
2.94246e-07
2.94382e-07
4.92676e-07
4.91183e-07
2.94308e-07
2.94314e-07
2.94343e-07
4.91219e-07
4.92658e-07
4.91137e-07
2.94352e-07
2.94411e-07
2.94368e-07
2.94446e-07
4.92608e-07
4.91084e-07
2.94322e-07
2.94437e-07
2.94326e-07
2.94461e-07
2.94369e-07
2.94243e-07
2.94384e-07
4.92698e-07
4.91175e-07
2.9433e-07
2.9431e-07
2.94336e-07
4.91216e-07
4.92645e-07
4.91134e-07
2.94355e-07
2.94436e-07
2.94363e-07
2.94441e-07
4.92613e-07
4.91068e-07
2.94307e-07
2.94445e-07
2.9433e-07
2.94452e-07
2.94374e-07
2.94243e-07
2.94389e-07
4.92697e-07
4.91166e-07
2.94318e-07
2.94307e-07
2.94345e-07
4.91221e-07
4.92642e-07
4.91153e-07
2.94354e-07
2.94423e-07
2.94368e-07
2.94448e-07
4.92593e-07
4.91097e-07
2.94322e-07
2.94443e-07
2.94329e-07
2.94452e-07
2.94376e-07
2.94234e-07
2.9439e-07
4.92689e-07
4.91172e-07
2.94334e-07
2.943e-07
2.9434e-07
4.91212e-07
4.9266e-07
4.91152e-07
2.94368e-07
2.94442e-07
2.94374e-07
2.9445e-07
4.92632e-07
4.9105e-07
2.94322e-07
2.94451e-07
2.94326e-07
2.94455e-07
2.94383e-07
2.94229e-07
2.94393e-07
4.927e-07
4.91166e-07
2.94334e-07
2.94295e-07
2.94341e-07
4.91191e-07
4.92688e-07
4.91124e-07
2.94372e-07
2.94449e-07
2.94373e-07
2.9445e-07
4.92612e-07
4.91041e-07
2.94325e-07
2.94453e-07
2.94329e-07
2.94453e-07
2.94392e-07
2.94213e-07
2.94393e-07
4.92722e-07
4.9112e-07
2.94341e-07
2.94279e-07
2.94342e-07
4.91147e-07
4.92679e-07
4.91095e-07
2.94372e-07
2.94449e-07
2.94371e-07
2.9445e-07
4.9256e-07
4.91136e-07
2.94329e-07
2.94452e-07
2.94329e-07
2.94451e-07
2.94392e-07
2.94202e-07
2.94392e-07
4.92685e-07
4.91121e-07
2.94341e-07
2.94266e-07
2.94342e-07
4.91137e-07
4.9266e-07
4.9106e-07
2.94371e-07
2.94449e-07
2.94366e-07
2.94447e-07
4.92667e-07
4.9108e-07
2.94329e-07
2.94451e-07
2.94327e-07
2.94448e-07
2.94392e-07
2.94195e-07
2.94387e-07
4.92685e-07
4.91085e-07
2.94342e-07
2.94257e-07
2.94337e-07
4.9111e-07
4.92619e-07
4.91108e-07
2.94367e-07
2.94448e-07
2.94359e-07
2.94438e-07
4.92707e-07
4.90953e-07
2.94327e-07
2.94448e-07
2.94322e-07
2.94441e-07
2.94387e-07
2.9419e-07
2.94376e-07
4.9266e-07
4.91092e-07
2.94338e-07
2.94252e-07
2.94328e-07
4.91118e-07
4.92629e-07
4.91191e-07
2.9436e-07
2.94438e-07
2.94341e-07
2.94414e-07
4.92587e-07
4.90949e-07
2.94323e-07
2.94442e-07
2.94306e-07
2.94421e-07
2.94377e-07
2.94174e-07
2.94353e-07
4.92629e-07
4.91169e-07
2.94328e-07
2.94239e-07
2.94306e-07
4.91176e-07
4.92694e-07
4.91143e-07
2.94341e-07
2.94414e-07
2.94293e-07
2.94362e-07
4.92475e-07
4.9101e-07
2.94307e-07
2.94421e-07
2.94259e-07
2.94371e-07
2.94354e-07
2.94127e-07
2.94299e-07
4.92648e-07
4.91193e-07
2.94306e-07
2.94197e-07
2.94253e-07
4.91168e-07
4.92648e-07
4.91054e-07
2.94295e-07
2.94362e-07
2.94203e-07
2.94268e-07
4.92445e-07
4.91001e-07
2.9426e-07
2.94372e-07
2.94169e-07
2.94279e-07
2.943e-07
2.94038e-07
2.94201e-07
4.92657e-07
4.91114e-07
2.94254e-07
2.94113e-07
2.94155e-07
4.91079e-07
4.92532e-07
4.90945e-07
2.94206e-07
2.94272e-07
2.94073e-07
2.94134e-07
4.92412e-07
4.90905e-07
2.94171e-07
2.94282e-07
2.94039e-07
2.94147e-07
2.94204e-07
2.93917e-07
2.94066e-07
4.92594e-07
4.90982e-07
2.94158e-07
2.93993e-07
2.94016e-07
4.90983e-07
4.92397e-07
4.90784e-07
2.94089e-07
2.94146e-07
2.9373e-07
2.93785e-07
4.92338e-07
4.90724e-07
2.94055e-07
2.9416e-07
2.93688e-07
2.93793e-07
2.94079e-07
2.93586e-07
2.93727e-07
4.92459e-07
4.90827e-07
2.9403e-07
2.93653e-07
2.93663e-07
4.90818e-07
4.92138e-07
4.77534e-07
2.94007e-07
2.94061e-07
2.82604e-07
2.82659e-07
4.92072e-07
4.77477e-07
2.93964e-07
2.94075e-07
2.82594e-07
2.82637e-07
2.94009e-07
2.82527e-07
2.82598e-07
4.92201e-07
4.77554e-07
2.9394e-07
2.82557e-07
2.82566e-07
4.77549e-07
4.61591e-07
2.72263e-07
2.7231e-07
4.61546e-07
2.72262e-07
2.72288e-07
1.16877e-07
1.16873e-07
1.16871e-07
2.72256e-07
4.61603e-07
2.72238e-07
1.21424e-07
1.21422e-07
1.21446e-07
1.21433e-07
3.80442e-06
8.87536e-06
3.80464e-06
8.87545e-06
1.82806e-05
1.82824e-05
3.80456e-06
8.87722e-06
3.80473e-06
8.87731e-06
1.21424e-07
1.21446e-07
1.21434e-07
1.21432e-07
1.21432e-07
1.21451e-07
1.21441e-07
1.44217e-06
2.99535e-06
1.70837e-07
2.93868e-07
1.44285e-06
2.99473e-06
1.70843e-07
1.82814e-05
1.82833e-05
1.44223e-06
1.70845e-07
2.99556e-06
2.9392e-07
1.44295e-06
1.70849e-07
2.99493e-06
5.18551e-06
5.1874e-06
4.90704e-07
5.1852e-06
5.18711e-06
3.80438e-06
8.87502e-06
3.80456e-06
8.87518e-06
1.82799e-05
1.82818e-05
3.8045e-06
8.87688e-06
3.80462e-06
8.87703e-06
1.21434e-07
1.21453e-07
1.21442e-07
1.21442e-07
1.21443e-07
1.2146e-07
1.21452e-07
1.44185e-06
2.99524e-06
1.70865e-07
2.93932e-07
1.44243e-06
2.99468e-06
1.70869e-07
1.82806e-05
1.82827e-05
1.44188e-06
1.7087e-07
2.99531e-06
2.93984e-07
1.44248e-06
1.70875e-07
2.99478e-06
5.1853e-06
5.1872e-06
4.9062e-07
5.18507e-06
5.187e-06
3.8044e-06
8.87491e-06
3.80455e-06
8.87513e-06
1.82794e-05
1.82815e-05
3.80452e-06
8.87675e-06
3.8046e-06
8.87697e-06
1.21445e-07
1.21462e-07
1.21453e-07
1.21453e-07
1.21453e-07
1.21469e-07
1.21463e-07
1.4418e-06
2.99535e-06
1.70886e-07
2.93988e-07
1.44229e-06
2.99487e-06
1.7089e-07
1.82803e-05
1.82825e-05
1.44181e-06
1.70894e-07
2.99538e-06
2.94045e-07
1.44232e-06
1.70898e-07
2.99494e-06
5.1853e-06
5.18721e-06
4.90513e-07
5.18513e-06
5.18705e-06
3.8045e-06
8.87491e-06
3.80463e-06
8.87517e-06
1.82792e-05
1.82813e-05
3.80463e-06
8.87676e-06
3.80469e-06
8.87699e-06
1.21455e-07
1.21471e-07
1.21464e-07
1.21463e-07
1.21463e-07
1.21479e-07
1.21473e-07
1.44187e-06
2.9955e-06
1.70905e-07
2.94027e-07
1.44234e-06
2.99499e-06
1.70908e-07
1.82802e-05
1.82825e-05
1.44191e-06
1.70915e-07
2.99557e-06
2.94091e-07
1.44238e-06
1.70919e-07
2.99512e-06
5.18541e-06
5.1873e-06
4.90495e-07
5.18525e-06
5.18717e-06
3.80465e-06
8.87499e-06
3.80476e-06
8.87526e-06
1.82792e-05
1.82813e-05
3.80478e-06
8.87681e-06
3.80483e-06
8.87706e-06
1.21464e-07
1.21481e-07
1.21474e-07
1.21472e-07
1.21471e-07
1.21488e-07
1.21482e-07
1.44198e-06
2.99564e-06
1.70922e-07
2.94046e-07
1.44244e-06
2.99513e-06
1.70918e-07
1.82802e-05
1.82826e-05
1.4421e-06
1.7094e-07
2.99578e-06
2.9413e-07
1.44257e-06
1.70945e-07
2.99534e-06
5.18557e-06
5.18746e-06
4.90509e-07
5.18542e-06
5.18734e-06
3.80483e-06
8.87509e-06
3.80493e-06
8.87537e-06
1.82793e-05
1.82815e-05
3.80496e-06
8.8769e-06
3.805e-06
8.87717e-06
1.21472e-07
1.2149e-07
1.21483e-07
1.2148e-07
1.21478e-07
1.21496e-07
1.2149e-07
1.4421e-06
2.99577e-06
1.70928e-07
2.94068e-07
1.44256e-06
2.99527e-06
1.70924e-07
1.82804e-05
1.82828e-05
1.44219e-06
1.70962e-07
2.99596e-06
2.94154e-07
1.44268e-06
1.70957e-07
2.9955e-06
5.18574e-06
5.18763e-06
4.90543e-07
5.18559e-06
5.18751e-06
3.80505e-06
8.87522e-06
3.80515e-06
8.8755e-06
1.82795e-05
1.82818e-05
3.80517e-06
8.87702e-06
3.80519e-06
8.87729e-06
1.2148e-07
1.21498e-07
1.2149e-07
1.21489e-07
1.21485e-07
1.21504e-07
1.21497e-07
1.44224e-06
2.9959e-06
1.70935e-07
2.94089e-07
1.4427e-06
2.99539e-06
1.70938e-07
1.82807e-05
1.8283e-05
1.44234e-06
1.70966e-07
2.9961e-06
2.94178e-07
1.44281e-06
1.70961e-07
2.99563e-06
5.1859e-06
5.1878e-06
4.90587e-07
5.18575e-06
5.18767e-06
3.80526e-06
8.87536e-06
3.80536e-06
8.87565e-06
1.82798e-05
1.82821e-05
3.80538e-06
8.87715e-06
3.80541e-06
8.87743e-06
1.21487e-07
1.21506e-07
1.21498e-07
1.21496e-07
1.21492e-07
1.21512e-07
1.21504e-07
1.44238e-06
2.99602e-06
1.70953e-07
2.94117e-07
1.44284e-06
2.9955e-06
1.7095e-07
1.82809e-05
1.82833e-05
1.44245e-06
1.70971e-07
2.99621e-06
2.94206e-07
1.44292e-06
1.70974e-07
2.99574e-06
5.18605e-06
5.18794e-06
4.90642e-07
5.18589e-06
5.18781e-06
3.80542e-06
8.87551e-06
3.80554e-06
8.87579e-06
1.82801e-05
1.82824e-05
3.80554e-06
8.87729e-06
3.80559e-06
8.87757e-06
1.21494e-07
1.21514e-07
1.21505e-07
1.21503e-07
1.21499e-07
1.21519e-07
1.21511e-07
1.4425e-06
2.99611e-06
1.7096e-07
2.94135e-07
1.44297e-06
2.99558e-06
1.70963e-07
1.82812e-05
1.82836e-05
1.44258e-06
1.70992e-07
2.99631e-06
2.94234e-07
1.44305e-06
1.70988e-07
2.99582e-06
5.18617e-06
5.18806e-06
4.90696e-07
5.18599e-06
5.1879e-06
3.80552e-06
8.87563e-06
3.80566e-06
8.8759e-06
1.82804e-05
1.82827e-05
3.80564e-06
8.87743e-06
3.80572e-06
8.87769e-06
1.215e-07
1.2152e-07
1.21511e-07
1.21508e-07
1.21505e-07
1.21525e-07
1.21517e-07
1.44262e-06
2.99618e-06
1.70975e-07
2.94153e-07
1.44309e-06
2.99564e-06
1.70979e-07
1.82814e-05
1.82837e-05
1.44267e-06
1.70994e-07
2.99637e-06
2.94241e-07
1.44316e-06
1.70991e-07
2.99588e-06
5.18625e-06
5.18814e-06
4.90748e-07
5.18606e-06
5.18797e-06
3.80555e-06
8.87572e-06
3.80572e-06
8.87598e-06
1.82807e-05
1.82829e-05
3.80565e-06
8.87753e-06
3.80576e-06
8.87779e-06
1.21507e-07
1.21526e-07
1.21518e-07
1.21515e-07
1.21513e-07
1.2153e-07
1.21525e-07
1.44269e-06
2.99623e-06
1.71001e-07
2.94175e-07
1.44317e-06
2.99568e-06
1.71005e-07
1.82816e-05
1.82839e-05
1.44271e-06
1.71012e-07
2.99641e-06
2.94256e-07
1.4432e-06
1.7101e-07
2.99591e-06
5.18628e-06
5.18817e-06
4.90791e-07
5.18607e-06
5.18799e-06
3.80553e-06
8.8758e-06
3.80571e-06
8.87605e-06
1.82809e-05
1.82831e-05
3.80564e-06
8.8776e-06
3.80576e-06
8.87785e-06
1.21514e-07
1.21531e-07
1.21525e-07
1.21522e-07
1.2152e-07
1.21537e-07
1.21531e-07
1.44272e-06
2.99623e-06
1.71023e-07
2.94189e-07
1.44322e-06
2.99567e-06
1.71018e-07
1.82817e-05
1.82841e-05
1.44274e-06
1.71024e-07
2.99641e-06
2.9427e-07
1.44323e-06
1.7102e-07
2.99591e-06
5.18628e-06
5.18817e-06
4.90822e-07
5.18607e-06
5.18798e-06
3.8055e-06
8.87585e-06
3.80569e-06
8.87609e-06
1.82811e-05
1.82833e-05
3.80561e-06
8.87765e-06
3.80574e-06
8.87789e-06
1.21521e-07
1.21539e-07
1.21532e-07
1.2153e-07
1.21526e-07
1.21544e-07
1.21539e-07
1.44271e-06
2.9962e-06
1.71025e-07
2.94203e-07
1.44321e-06
2.99563e-06
1.71018e-07
1.82818e-05
1.82842e-05
1.44276e-06
1.71038e-07
2.9964e-06
2.94286e-07
1.44326e-06
1.71036e-07
2.9959e-06
5.18627e-06
5.18816e-06
4.90845e-07
5.18605e-06
5.18796e-06
3.80545e-06
8.87588e-06
3.80564e-06
8.87612e-06
1.82812e-05
1.82834e-05
3.80557e-06
8.87768e-06
3.8057e-06
8.87791e-06
1.21528e-07
1.21545e-07
1.21539e-07
1.21535e-07
1.21534e-07
1.21551e-07
1.21545e-07
1.44272e-06
2.99618e-06
1.71038e-07
2.9422e-07
1.44321e-06
2.99561e-06
1.71036e-07
1.82819e-05
1.82842e-05
1.44276e-06
1.71049e-07
2.99638e-06
2.94299e-07
1.44326e-06
1.71043e-07
2.99587e-06
5.18624e-06
5.18813e-06
4.90864e-07
5.18602e-06
5.18794e-06
3.80538e-06
8.87589e-06
3.80558e-06
8.87612e-06
1.82813e-05
1.82835e-05
3.80551e-06
8.87767e-06
3.80565e-06
8.87789e-06
1.21536e-07
1.21551e-07
1.21546e-07
1.21538e-07
1.2154e-07
1.21553e-07
1.2155e-07
1.44272e-06
2.99616e-06
1.71052e-07
2.94234e-07
1.44322e-06
2.99559e-06
1.71048e-07
1.8282e-05
1.82843e-05
1.44272e-06
1.71055e-07
2.99636e-06
2.94306e-07
1.44323e-06
1.71051e-07
2.99585e-06
5.1862e-06
5.1881e-06
4.90883e-07
5.18598e-06
5.1879e-06
3.8053e-06
8.87589e-06
3.80551e-06
8.87611e-06
1.82813e-05
1.82835e-05
3.80542e-06
8.87765e-06
3.80557e-06
8.87788e-06
1.21538e-07
1.21552e-07
1.21548e-07
1.21536e-07
1.21539e-07
1.21552e-07
1.21548e-07
1.44269e-06
2.99611e-06
1.71054e-07
2.94237e-07
1.44319e-06
2.99553e-06
1.71045e-07
1.8282e-05
1.82843e-05
1.44268e-06
1.71057e-07
2.99633e-06
2.94292e-07
1.44319e-06
1.71048e-07
2.9958e-06
5.18616e-06
5.18806e-06
4.90898e-07
5.18593e-06
5.18785e-06
3.8052e-06
8.87587e-06
3.80543e-06
8.87611e-06
1.82814e-05
1.82836e-05
3.80532e-06
8.87765e-06
3.80548e-06
8.87787e-06
1.21537e-07
1.21551e-07
1.21547e-07
1.21533e-07
1.21537e-07
1.21551e-07
1.21548e-07
1.44264e-06
2.99605e-06
1.71059e-07
2.94222e-07
1.44315e-06
2.99547e-06
1.71053e-07
1.8282e-05
1.82843e-05
1.44262e-06
1.71059e-07
2.99627e-06
2.94302e-07
1.44314e-06
1.71053e-07
2.99574e-06
5.1861e-06
5.18801e-06
4.90903e-07
5.18587e-06
5.18779e-06
3.80508e-06
8.87587e-06
3.80531e-06
8.87611e-06
1.82814e-05
1.82836e-05
3.80521e-06
8.87763e-06
3.80538e-06
8.87792e-06
1.21536e-07
1.2155e-07
1.21547e-07
1.21532e-07
1.21536e-07
1.2155e-07
1.21547e-07
1.44259e-06
2.99598e-06
1.71057e-07
2.94232e-07
1.4431e-06
2.99539e-06
1.71047e-07
1.8282e-05
1.82844e-05
1.44256e-06
1.71056e-07
2.9962e-06
2.94284e-07
1.44308e-06
1.71045e-07
2.99565e-06
5.18605e-06
5.18795e-06
4.90909e-07
5.1858e-06
5.18771e-06
3.80498e-06
8.87587e-06
3.8052e-06
8.87612e-06
1.82814e-05
1.82837e-05
3.80512e-06
8.87769e-06
3.80528e-06
8.87795e-06
1.21535e-07
1.2155e-07
1.21547e-07
1.2153e-07
1.21535e-07
1.21547e-07
1.21547e-07
1.44253e-06
2.9959e-06
1.71054e-07
2.94214e-07
1.44304e-06
2.99532e-06
1.71043e-07
1.82821e-05
1.82845e-05
1.4425e-06
1.71049e-07
2.99612e-06
2.94287e-07
1.44302e-06
1.71038e-07
2.99557e-06
5.18599e-06
5.18787e-06
4.90924e-07
5.18572e-06
5.18762e-06
3.80489e-06
8.87586e-06
3.80512e-06
8.87615e-06
1.82814e-05
1.82838e-05
3.80502e-06
8.87771e-06
3.80519e-06
8.87801e-06
1.21534e-07
1.21546e-07
1.21546e-07
1.21528e-07
1.21531e-07
1.21542e-07
1.21542e-07
1.44249e-06
2.99584e-06
1.71049e-07
2.94207e-07
1.443e-06
2.99524e-06
1.71037e-07
1.82821e-05
1.82847e-05
1.44246e-06
1.71044e-07
2.99605e-06
2.94272e-07
1.44298e-06
1.71032e-07
2.99549e-06
5.18595e-06
5.18783e-06
4.90964e-07
5.18568e-06
5.18757e-06
3.80483e-06
8.87589e-06
3.80506e-06
8.87624e-06
1.82813e-05
1.82841e-05
3.80494e-06
8.87775e-06
3.80512e-06
8.8781e-06
1.2153e-07
1.21541e-07
1.21541e-07
1.21525e-07
1.21525e-07
1.21536e-07
1.21537e-07
1.44246e-06
2.99578e-06
1.71044e-07
2.94193e-07
1.44297e-06
2.99516e-06
1.71031e-07
1.82822e-05
1.82852e-05
1.44243e-06
1.71038e-07
2.99597e-06
2.94258e-07
1.44295e-06
1.71025e-07
2.99537e-06
5.18607e-06
5.18789e-06
4.90999e-07
5.18578e-06
5.18763e-06
3.80489e-06
8.87598e-06
3.80507e-06
8.87644e-06
1.82816e-05
1.82849e-05
3.80499e-06
8.87785e-06
3.80511e-06
8.87833e-06
1.21524e-07
1.21536e-07
1.21536e-07
1.2152e-07
1.2152e-07
1.21532e-07
1.21531e-07
1.44249e-06
2.99574e-06
1.71038e-07
2.94183e-07
1.44298e-06
2.99506e-06
1.71025e-07
1.82825e-05
1.82859e-05
1.44242e-06
1.71031e-07
2.99588e-06
2.94246e-07
1.44292e-06
1.71018e-07
2.99523e-06
5.18627e-06
5.18811e-06
4.91013e-07
5.1858e-06
5.18768e-06
3.80515e-06
8.87613e-06
3.80529e-06
8.87675e-06
1.82816e-05
1.82856e-05
3.80521e-06
8.87803e-06
3.8053e-06
8.87865e-06
1.21519e-07
1.21531e-07
1.21531e-07
1.21516e-07
1.21514e-07
1.21526e-07
1.21526e-07
1.44262e-06
2.99567e-06
1.71034e-07
2.94179e-07
1.44309e-06
2.99489e-06
1.7102e-07
1.82825e-05
1.82865e-05
1.44253e-06
1.71026e-07
2.99582e-06
2.94241e-07
1.443e-06
1.71012e-07
2.99508e-06
5.18633e-06
5.18821e-06
4.91064e-07
5.18562e-06
5.18752e-06
3.8055e-06
8.87631e-06
3.80565e-06
8.87723e-06
1.82813e-05
1.82866e-05
3.80551e-06
8.87822e-06
3.8056e-06
8.87915e-06
1.21513e-07
1.21525e-07
1.21524e-07
1.2151e-07
1.21503e-07
1.21516e-07
1.21515e-07
1.44275e-06
2.99563e-06
1.71029e-07
2.94172e-07
1.44324e-06
2.99467e-06
1.71013e-07
1.8282e-05
1.82874e-05
1.44268e-06
1.71021e-07
2.9958e-06
2.94234e-07
1.44315e-06
1.71004e-07
2.99488e-06
5.18635e-06
5.18825e-06
4.91072e-07
5.18535e-06
5.18728e-06
3.80577e-06
8.87655e-06
3.806e-06
8.87804e-06
1.82806e-05
1.82881e-05
3.80582e-06
8.87847e-06
3.80598e-06
8.87994e-06
1.21502e-07
1.21514e-07
1.21513e-07
1.21494e-07
1.21486e-07
1.21501e-07
1.21497e-07
1.44282e-06
2.99566e-06
1.71018e-07
2.94142e-07
1.44336e-06
2.99433e-06
1.70997e-07
1.82813e-05
1.82889e-05
1.44278e-06
1.7101e-07
2.99583e-06
2.94209e-07
1.44332e-06
1.7099e-07
2.99454e-06
5.18682e-06
5.18874e-06
4.9101e-07
5.18546e-06
5.18741e-06
3.80603e-06
8.87689e-06
3.80636e-06
8.87918e-06
1.82791e-05
1.829e-05
3.80616e-06
8.87877e-06
3.80638e-06
8.88106e-06
1.21481e-07
1.21497e-07
1.21492e-07
1.21469e-07
1.2146e-07
1.21476e-07
1.21468e-07
1.44281e-06
2.99572e-06
1.70993e-07
2.94073e-07
1.44349e-06
2.99376e-06
1.70966e-07
1.82799e-05
1.8291e-05
1.44273e-06
1.70988e-07
2.99587e-06
2.94146e-07
1.44343e-06
1.70961e-07
2.99399e-06
5.18784e-06
5.18976e-06
4.90871e-07
5.18564e-06
5.18758e-06
3.80614e-06
8.87649e-06
3.80651e-06
8.87994e-06
1.82761e-05
1.82921e-05
3.80636e-06
8.87832e-06
3.80666e-06
8.88175e-06
1.21456e-07
1.21472e-07
1.21464e-07
1.21453e-07
1.21446e-07
1.21463e-07
1.21454e-07
1.44262e-06
2.99648e-06
1.70954e-07
2.93967e-07
1.44359e-06
2.99363e-06
1.70922e-07
1.82772e-05
1.82933e-05
1.44252e-06
1.70949e-07
2.9967e-06
2.94043e-07
1.4435e-06
1.70917e-07
2.99388e-06
5.18928e-06
5.1912e-06
4.90692e-07
5.18585e-06
5.18777e-06
3.80629e-06
8.87434e-06
3.80666e-06
8.88015e-06
1.82705e-05
1.82937e-05
3.80652e-06
8.87605e-06
3.80684e-06
8.88183e-06
1.21438e-07
1.21453e-07
1.21444e-07
1.21418e-07
1.21417e-07
1.21431e-07
1.21421e-07
1.44219e-06
2.99878e-06
1.70907e-07
2.93818e-07
1.4438e-06
2.99374e-06
1.70872e-07
1.8272e-05
1.82953e-05
1.44209e-06
1.70903e-07
2.99898e-06
2.93889e-07
1.4437e-06
1.70869e-07
2.99394e-06
5.19149e-06
5.19339e-06
4.90582e-07
5.18647e-06
5.18836e-06
3.80119e-06
8.86869e-06
3.80613e-06
8.87566e-06
1.82604e-05
1.82865e-05
3.8014e-06
8.87038e-06
3.80629e-06
8.87722e-06
1.2135e-07
1.21361e-07
1.21355e-07
1.20209e-07
1.2021e-07
1.20214e-07
1.20207e-07
1.43695e-06
3.00265e-06
1.70601e-07
2.92124e-07
1.44354e-06
2.98829e-06
1.70945e-07
1.82622e-05
1.82883e-05
1.43683e-06
1.70595e-07
3.00278e-06
2.92179e-07
1.44344e-06
1.70934e-07
2.98834e-06
5.19468e-06
5.19656e-06
4.88465e-07
5.18366e-06
5.18543e-06
2.9814e-06
8.05697e-06
3.7414e-06
4.99732e-06
1.61022e-05
7.92448e-06
2.98157e-06
8.05812e-06
3.74161e-06
4.99818e-06
7.85703e-08
9.06485e-08
9.06451e-08
1.2491e-07
7.88931e-08
9.25874e-08
9.25852e-08
1.32007e-06
2.87834e-06
1.63251e-07
2.53779e-07
1.39822e-06
2.9215e-06
1.52479e-07
1.61033e-05
7.92444e-06
1.31998e-06
1.63239e-07
2.87834e-06
2.53792e-07
1.3981e-06
1.52465e-07
2.92143e-06
5.08995e-06
5.09188e-06
4.22863e-07
4.63318e-06
4.63422e-06
1.82816e-05
1.82835e-05
5.18534e-06
5.18699e-06
8.87563e-06
3.8045e-06
8.8767e-06
8.87656e-06
3.8045e-06
2.99501e-06
1.70825e-07
1.4425e-06
2.93992e-07
2.99552e-06
1.70848e-07
2.99625e-06
1.44253e-06
1.82828e-05
1.82811e-05
4.92149e-07
5.18689e-06
5.18506e-06
5.18734e-06
5.18574e-06
1.82804e-05
1.82785e-05
8.87749e-06
3.80464e-06
2.99541e-06
1.70846e-07
1.44272e-06
8.87682e-06
3.80449e-06
1.70853e-07
2.9953e-06
1.44264e-06
1.44329e-06
2.93824e-07
2.99482e-06
1.70828e-07
2.9956e-06
1.70823e-07
1.44244e-06
3.80463e-06
8.87639e-06
8.87625e-06
3.80446e-06
1.44334e-06
2.93936e-07
1.70838e-07
2.9952e-06
1.70833e-07
2.99602e-06
1.44247e-06
3.80457e-06
8.87642e-06
8.87629e-06
3.8044e-06
1.82839e-05
5.18713e-06
5.18531e-06
1.82823e-05
1.70841e-07
2.99509e-06
1.44252e-06
2.93883e-07
1.70843e-07
2.99573e-06
2.99649e-06
1.44263e-06
8.87654e-06
3.80435e-06
8.87744e-06
8.8773e-06
3.80448e-06
4.92171e-07
5.18535e-06
5.18725e-06
5.18583e-06
5.18771e-06
1.82823e-05
1.82805e-05
1.82838e-05
1.82821e-05
1.82794e-05
1.82811e-05
1.82813e-05
1.8283e-05
5.1854e-06
5.18706e-06
4.90448e-07
5.18505e-06
5.18674e-06
1.82806e-05
1.82789e-05
1.82826e-05
1.82808e-05
4.91979e-07
5.18488e-06
5.18661e-06
5.18513e-06
5.18683e-06
3.80444e-06
8.8764e-06
3.80461e-06
8.87653e-06
1.44225e-06
2.99539e-06
1.70829e-07
2.9399e-07
1.44285e-06
2.99485e-06
1.70835e-07
1.44228e-06
2.99591e-06
1.70853e-07
2.94038e-07
1.44289e-06
2.9954e-06
1.70861e-07
3.80455e-06
8.87528e-06
8.87515e-06
3.8044e-06
3.80456e-06
8.87635e-06
8.87622e-06
3.8044e-06
1.44259e-06
2.94012e-07
2.99473e-06
1.70851e-07
2.99521e-06
1.70845e-07
1.44205e-06
1.44263e-06
2.94063e-07
2.99525e-06
1.70878e-07
2.99577e-06
1.70872e-07
1.44208e-06
5.187e-06
5.18526e-06
4.90503e-07
5.18677e-06
5.18487e-06
1.8278e-05
1.828e-05
1.82821e-05
1.82802e-05
4.91985e-07
5.18669e-06
5.18482e-06
5.18688e-06
5.1851e-06
1.82797e-05
1.82777e-05
1.44247e-06
2.99587e-06
1.70848e-07
2.93938e-07
1.44307e-06
2.99539e-06
1.70858e-07
3.80444e-06
8.87652e-06
3.80453e-06
8.87664e-06
1.44239e-06
1.70857e-07
2.9958e-06
2.94029e-07
1.44299e-06
1.70865e-07
2.99531e-06
3.80462e-06
8.87714e-06
8.87701e-06
3.80453e-06
1.44281e-06
2.93967e-07
2.99534e-06
1.70876e-07
2.99581e-06
1.70866e-07
1.44226e-06
3.8045e-06
8.87648e-06
8.87634e-06
3.8044e-06
1.44273e-06
2.94055e-07
1.70882e-07
2.99526e-06
1.70876e-07
2.99574e-06
1.44218e-06
3.80445e-06
8.87611e-06
3.8046e-06
8.87624e-06
1.44221e-06
1.70844e-07
2.99557e-06
2.93983e-07
1.44279e-06
1.70851e-07
2.99503e-06
3.80438e-06
8.87613e-06
3.80454e-06
8.87625e-06
1.44252e-06
2.93894e-07
2.99469e-06
1.7086e-07
2.99517e-06
1.70855e-07
1.44199e-06
3.80458e-06
8.8761e-06
8.87596e-06
3.80442e-06
1.44254e-06
2.94005e-07
1.70867e-07
2.99491e-06
1.70862e-07
2.99541e-06
1.44202e-06
3.80452e-06
8.87609e-06
8.87596e-06
3.80436e-06
5.18732e-06
5.18537e-06
4.90426e-07
5.1868e-06
5.18502e-06
1.828e-05
1.82818e-05
1.8283e-05
1.8281e-05
4.91933e-07
5.18663e-06
5.18486e-06
5.18701e-06
5.18511e-06
1.82813e-05
1.82796e-05
1.44237e-06
1.70847e-07
2.99613e-06
2.93934e-07
1.44297e-06
1.70854e-07
2.99561e-06
3.80427e-06
8.87625e-06
3.80447e-06
8.87637e-06
3.80442e-06
8.87715e-06
3.80452e-06
8.87727e-06
1.44259e-06
2.93943e-07
1.70864e-07
2.99481e-06
1.70858e-07
2.9953e-06
1.44203e-06
1.44271e-06
2.93958e-07
1.70872e-07
2.99545e-06
1.70865e-07
2.99597e-06
1.44217e-06
3.80441e-06
8.8762e-06
8.87608e-06
3.80422e-06
3.80448e-06
8.8771e-06
8.87697e-06
3.80437e-06
1.82801e-05
1.82819e-05
1.82816e-05
1.82834e-05
4.92183e-07
5.18511e-06
5.18703e-06
5.18532e-06
5.18722e-06
1.82816e-05
1.82797e-05
1.82831e-05
1.82813e-05
1.82785e-05
1.82803e-05
1.82805e-05
1.82824e-05
5.18498e-06
5.18672e-06
4.90574e-07
5.1848e-06
5.18657e-06
1.82801e-05
1.82782e-05
1.82822e-05
1.82802e-05
4.92149e-07
5.1848e-06
5.1866e-06
5.18492e-06
5.1867e-06
3.80439e-06
8.87606e-06
3.80453e-06
8.8762e-06
1.44191e-06
2.99513e-06
1.70856e-07
2.94052e-07
1.4424e-06
2.99474e-06
1.70863e-07
1.44195e-06
2.99565e-06
1.70882e-07
2.94113e-07
1.44244e-06
2.99519e-06
1.70888e-07
3.80451e-06
8.87514e-06
8.87491e-06
3.80438e-06
3.80452e-06
8.87607e-06
8.87591e-06
3.80438e-06
1.44229e-06
2.94073e-07
2.99485e-06
1.70876e-07
2.99518e-06
1.70872e-07
1.44185e-06
1.44233e-06
2.94133e-07
2.99515e-06
1.70899e-07
2.99559e-06
1.70896e-07
1.44187e-06
5.18681e-06
5.18505e-06
4.90629e-07
5.18665e-06
5.18479e-06
1.82775e-05
1.82795e-05
1.82816e-05
1.82797e-05
4.92176e-07
5.18664e-06
5.18482e-06
5.18678e-06
5.18504e-06
1.82794e-05
1.82773e-05
1.44212e-06
2.99578e-06
1.70879e-07
2.94011e-07
1.44261e-06
2.99535e-06
1.70888e-07
3.80436e-06
8.8762e-06
3.80445e-06
8.87638e-06
1.44204e-06
1.70888e-07
2.99572e-06
2.94108e-07
1.44253e-06
1.70895e-07
2.99528e-06
3.80457e-06
8.87698e-06
8.87676e-06
3.8045e-06
1.44249e-06
2.94032e-07
2.99545e-06
1.70903e-07
2.99581e-06
1.70894e-07
1.44205e-06
3.80443e-06
8.87635e-06
8.87611e-06
3.80436e-06
1.44241e-06
2.94133e-07
1.7091e-07
2.99539e-06
1.70905e-07
2.99576e-06
1.44198e-06
3.8044e-06
8.87582e-06
3.80455e-06
8.876e-06
1.4419e-06
1.70872e-07
2.99532e-06
2.94055e-07
1.44237e-06
1.70878e-07
2.99488e-06
3.80434e-06
8.87581e-06
3.80449e-06
8.87598e-06
1.44223e-06
2.93953e-07
2.99477e-06
1.70882e-07
2.99514e-06
1.70878e-07
1.44181e-06
3.80454e-06
8.87597e-06
8.87574e-06
3.8044e-06
1.44227e-06
2.94079e-07
1.7089e-07
2.99496e-06
1.70887e-07
2.99531e-06
1.44184e-06
3.80448e-06
8.87594e-06
8.87571e-06
3.80434e-06
5.18686e-06
5.18497e-06
4.9059e-07
5.18659e-06
5.18479e-06
1.82792e-05
1.8281e-05
1.82826e-05
1.82804e-05
4.92108e-07
5.18661e-06
5.1848e-06
5.18683e-06
5.18492e-06
1.82808e-05
1.82789e-05
1.44203e-06
1.70877e-07
2.99586e-06
2.94007e-07
1.44252e-06
1.70884e-07
2.99544e-06
3.8042e-06
8.87592e-06
3.80437e-06
8.87607e-06
3.80435e-06
8.87682e-06
3.80443e-06
8.877e-06
1.44228e-06
2.94006e-07
1.70889e-07
2.99485e-06
1.70885e-07
2.9952e-06
1.44183e-06
1.4424e-06
2.94032e-07
1.70899e-07
2.99549e-06
1.70894e-07
2.99586e-06
1.44197e-06
3.80436e-06
8.87601e-06
8.8758e-06
3.80421e-06
3.80442e-06
8.87695e-06
8.87673e-06
3.80435e-06
1.82794e-05
1.82813e-05
1.8281e-05
1.82829e-05
4.92249e-07
5.18509e-06
5.18701e-06
5.18522e-06
5.18713e-06
1.82811e-05
1.82792e-05
1.82827e-05
1.82807e-05
1.8278e-05
1.828e-05
1.82801e-05
1.82821e-05
5.18493e-06
5.18675e-06
4.90597e-07
5.18483e-06
5.18666e-06
1.828e-05
1.82779e-05
1.8282e-05
1.828e-05
4.92235e-07
5.18489e-06
5.18674e-06
5.18497e-06
5.18681e-06
3.80441e-06
8.8758e-06
3.80452e-06
8.87599e-06
1.44184e-06
2.99529e-06
1.70881e-07
2.94107e-07
1.44224e-06
2.99495e-06
1.70886e-07
1.44185e-06
2.99558e-06
1.70902e-07
2.94171e-07
1.44227e-06
2.9952e-06
1.70907e-07