/*--------------------------------*- C++ -*----------------------------------*\
| =========                 |                                                 |
| \\      /  F ield         | OpenFOAM: The Open Source CFD Toolbox           |
|  \\    /   O peration     | Version:  v1912                                 |
|   \\  /    A nd           | Website:  www.openfoam.com                      |
|    \\/     M anipulation  |                                                 |
\*---------------------------------------------------------------------------*/
FoamFile
{
    version     2.0;
    format      ascii;
    class       volScalarField;
    location    "120";
    object      k;
}
// * * * * * * * * * * * * * * * * * * * * * * * * * * * * * * * * * * * * * //

dimensions      [0 2 -2 0 0 0 0];


internalField   nonuniform List<scalar> 
57062
(
1.31188e-05
1.73669e-05
1.73677e-05
2.15818e-05
1.31192e-05
1.73692e-05
1.73697e-05
2.15759e-05
1.31196e-05
1.73712e-05
1.7372e-05
2.15773e-05
1.312e-05
1.73725e-05
1.73738e-05
2.15789e-05
1.31205e-05
1.73736e-05
1.73752e-05
2.15802e-05
1.31208e-05
1.73748e-05
1.73763e-05
2.15822e-05
1.31213e-05
1.73755e-05
1.73773e-05
2.15845e-05
1.31217e-05
1.73764e-05
1.73783e-05
2.1587e-05
1.31221e-05
1.73766e-05
1.73792e-05
2.15895e-05
1.31226e-05
1.73775e-05
1.73803e-05
2.15915e-05
1.3123e-05
1.73789e-05
1.73808e-05
2.15928e-05
1.31233e-05
1.73791e-05
1.73809e-05
2.1594e-05
1.31237e-05
1.73801e-05
1.73819e-05
2.15948e-05
1.31242e-05
1.73806e-05
1.73826e-05
2.15958e-05
1.31245e-05
1.73812e-05
1.73831e-05
2.1597e-05
1.31247e-05
1.73816e-05
1.73833e-05
2.15978e-05
1.31242e-05
1.73815e-05
1.73831e-05
2.15985e-05
1.31237e-05
1.73813e-05
1.73829e-05
2.1599e-05
1.31232e-05
1.73809e-05
1.73823e-05
2.15999e-05
1.31229e-05
1.73806e-05
1.73818e-05
2.16008e-05
1.31224e-05
1.73803e-05
1.73816e-05
2.16011e-05
1.31224e-05
1.73801e-05
1.73814e-05
2.16011e-05
1.31219e-05
1.73801e-05
1.73813e-05
2.16007e-05
1.31208e-05
1.738e-05
1.73811e-05
2.16e-05
1.31193e-05
1.73794e-05
1.73806e-05
2.16001e-05
1.3117e-05
1.73777e-05
1.73792e-05
2.15975e-05
1.31164e-05
1.73755e-05
1.73772e-05
2.1592e-05
1.31164e-05
1.73743e-05
1.73759e-05
2.15883e-05
1.31141e-05
1.7372e-05
1.73734e-05
2.15847e-05
1.30218e-05
1.68043e-05
1.68046e-05
2.09436e-05
2.15507e-05
1.73676e-05
1.73682e-05
2.15485e-05
1.73673e-05
1.73677e-05
1.73662e-05
1.73681e-05
2.15502e-05
1.73674e-05
1.7368e-05
2.15458e-05
2.15814e-05
2.15436e-05
1.7368e-05
1.73686e-05
1.73701e-05
1.73709e-05
2.15828e-05
2.15433e-05
1.73677e-05
1.73681e-05
1.73699e-05
1.73704e-05
1.73686e-05
1.73686e-05
1.73709e-05
2.15815e-05
2.15446e-05
1.73683e-05
1.73691e-05
1.73701e-05
2.15434e-05
2.15761e-05
2.15427e-05
1.73705e-05
1.73713e-05
1.73721e-05
1.7373e-05
2.15775e-05
2.15419e-05
1.73703e-05
1.73709e-05
1.7372e-05
1.73729e-05
1.73713e-05
1.73707e-05
1.7373e-05
2.15785e-05
2.15418e-05
1.73705e-05
1.73713e-05
1.73726e-05
2.15478e-05
2.15731e-05
2.15457e-05
1.73725e-05
1.73733e-05
1.73738e-05
1.73745e-05
2.15736e-05
2.15454e-05
1.73724e-05
1.73733e-05
1.73739e-05
1.73748e-05
1.73734e-05
1.73722e-05
1.73749e-05
2.15748e-05
2.15452e-05
1.73729e-05
1.73734e-05
1.73744e-05
2.15496e-05
2.15742e-05
2.15489e-05
1.7374e-05
1.73746e-05
1.73751e-05
1.73758e-05
2.15742e-05
2.15494e-05
1.73741e-05
1.73751e-05
1.73751e-05
1.73762e-05
1.73751e-05
1.73734e-05
1.73761e-05
2.15744e-05
2.155e-05
1.73746e-05
1.7375e-05
1.73756e-05
2.15509e-05
2.15766e-05
2.15524e-05
1.73752e-05
1.73755e-05
1.73761e-05
1.73764e-05
2.15771e-05
2.1553e-05
1.73752e-05
1.73763e-05
1.73762e-05
1.73771e-05
1.73762e-05
1.73746e-05
1.73774e-05
2.15777e-05
2.15536e-05
1.73758e-05
1.73762e-05
1.73769e-05
2.1553e-05
2.15802e-05
2.15559e-05
1.73762e-05
1.73762e-05
1.73773e-05
1.7377e-05
2.1581e-05
2.1556e-05
1.73762e-05
1.73771e-05
1.73772e-05
1.73781e-05
1.73771e-05
1.73751e-05
1.73778e-05
2.15815e-05
2.15563e-05
1.73766e-05
1.73773e-05
1.73772e-05
2.15553e-05
2.15845e-05
2.15581e-05
1.73772e-05
1.73772e-05
1.73781e-05
1.73786e-05
2.15854e-05
2.15568e-05
1.73771e-05
1.7378e-05
1.73781e-05
1.73791e-05
1.73775e-05
1.73762e-05
1.73782e-05
2.15848e-05
2.15587e-05
1.73771e-05
1.73781e-05
1.73785e-05
2.15575e-05
2.15876e-05
2.15595e-05
1.73783e-05
1.73784e-05
1.73794e-05
1.73789e-05
2.15878e-05
2.15572e-05
1.73782e-05
1.73789e-05
1.73794e-05
1.73799e-05
1.73784e-05
1.73765e-05
1.73798e-05
2.15882e-05
2.15601e-05
1.73782e-05
1.73791e-05
1.73791e-05
2.15598e-05
2.15888e-05
2.15608e-05
1.73795e-05
1.73786e-05
1.73807e-05
1.73793e-05
2.15875e-05
2.15589e-05
1.73792e-05
1.73797e-05
1.73799e-05
1.73812e-05
1.73795e-05
1.73774e-05
1.73801e-05
2.15903e-05
2.15616e-05
1.73788e-05
1.73801e-05
1.73792e-05
2.15615e-05
2.15889e-05
2.1562e-05
1.73805e-05
1.73795e-05
1.73813e-05
1.7381e-05
2.15873e-05
2.15604e-05
1.73797e-05
1.7381e-05
1.73803e-05
1.73815e-05
1.73798e-05
1.73787e-05
1.73804e-05
2.15912e-05
2.15632e-05
1.73791e-05
1.73806e-05
1.73801e-05
2.15627e-05
2.15898e-05
2.15634e-05
1.73809e-05
1.73806e-05
1.7381e-05
1.73808e-05
2.15885e-05
2.1562e-05
1.738e-05
1.73812e-05
1.73803e-05
1.73817e-05
1.73806e-05
1.7379e-05
1.73817e-05
2.15919e-05
2.15642e-05
1.73799e-05
1.73809e-05
1.7381e-05
2.15639e-05
2.15913e-05
2.15647e-05
1.73809e-05
1.73803e-05
1.73813e-05
1.73819e-05
2.15903e-05
2.15634e-05
1.73805e-05
1.73815e-05
1.73824e-05
1.73822e-05
1.73815e-05
1.73798e-05
1.73824e-05
2.15927e-05
2.1565e-05
1.73809e-05
1.73816e-05
1.73818e-05
2.15649e-05
2.15929e-05
2.1566e-05
1.73816e-05
1.73817e-05
1.73829e-05
1.73826e-05
2.15921e-05
2.15645e-05
1.73822e-05
1.73824e-05
1.73829e-05
1.73835e-05
1.73822e-05
1.73804e-05
1.7383e-05
2.15935e-05
2.15661e-05
1.73815e-05
1.73824e-05
1.73825e-05
2.15659e-05
2.15943e-05
2.15671e-05
1.73827e-05
1.73824e-05
1.73834e-05
1.73834e-05
2.15934e-05
2.15655e-05
1.73826e-05
1.73832e-05
1.73834e-05
1.73841e-05
1.73828e-05
1.73808e-05
1.73835e-05
2.15946e-05
2.15672e-05
1.73824e-05
1.73828e-05
1.73835e-05
2.1567e-05
2.15954e-05
2.15677e-05
1.73831e-05
1.73833e-05
1.73836e-05
1.73842e-05
2.15945e-05
2.15664e-05
1.73832e-05
1.7384e-05
1.73834e-05
1.73846e-05
1.73832e-05
1.73816e-05
1.73839e-05
2.15958e-05
2.15682e-05
1.73833e-05
1.73832e-05
1.73838e-05
2.15677e-05
2.15962e-05
2.15675e-05
1.73834e-05
1.7384e-05
1.73835e-05
1.73842e-05
2.15955e-05
2.15667e-05
1.73828e-05
1.73841e-05
1.73829e-05
1.73841e-05
1.73837e-05
1.73813e-05
1.73844e-05
2.15971e-05
2.15681e-05
1.73836e-05
1.7383e-05
1.7384e-05
2.15683e-05
2.15962e-05
2.15675e-05
1.73832e-05
1.73842e-05
1.73834e-05
1.73843e-05
2.15961e-05
2.15664e-05
1.73829e-05
1.73839e-05
1.7383e-05
1.73841e-05
1.73841e-05
1.73812e-05
1.73844e-05
2.15973e-05
2.15681e-05
1.73836e-05
1.73828e-05
1.73838e-05
2.15686e-05
2.15962e-05
2.1568e-05
1.73833e-05
1.73843e-05
1.73834e-05
1.73844e-05
2.15956e-05
2.15673e-05
1.73828e-05
1.7384e-05
1.73829e-05
1.73842e-05
1.73844e-05
1.73807e-05
1.73846e-05
2.15973e-05
2.15683e-05
1.73838e-05
1.73822e-05
1.73838e-05
2.1569e-05
2.15966e-05
2.15682e-05
1.73832e-05
1.73843e-05
1.73833e-05
1.73844e-05
2.15968e-05
2.15659e-05
1.73828e-05
1.73843e-05
1.73829e-05
1.73843e-05
1.73845e-05
1.73803e-05
1.73846e-05
2.15977e-05
2.15682e-05
1.73837e-05
1.73816e-05
1.73837e-05
2.15689e-05
2.15979e-05
2.15678e-05
1.73833e-05
1.73843e-05
1.73833e-05
1.73844e-05
2.15966e-05
2.15658e-05
1.73828e-05
1.73843e-05
1.73829e-05
1.73842e-05
1.73846e-05
1.73799e-05
1.73845e-05
2.15987e-05
2.15668e-05
1.73837e-05
1.73812e-05
1.73837e-05
2.15682e-05
2.15982e-05
2.15669e-05
1.73833e-05
1.73844e-05
1.73832e-05
1.73841e-05
2.15948e-05
2.1568e-05
1.73828e-05
1.73842e-05
1.73827e-05
1.73839e-05
1.73845e-05
1.73796e-05
1.73841e-05
2.15977e-05
2.15667e-05
1.73837e-05
1.73809e-05
1.73834e-05
2.15678e-05
2.15977e-05
2.15652e-05
1.73832e-05
1.73842e-05
1.73827e-05
1.73836e-05
2.15972e-05
2.15663e-05
1.73827e-05
1.73839e-05
1.73823e-05
1.73834e-05
1.73841e-05
1.73794e-05
1.73834e-05
2.15975e-05
2.15652e-05
1.73834e-05
1.73806e-05
1.73828e-05
2.15668e-05
2.15957e-05
2.15665e-05
1.73827e-05
1.73836e-05
1.73821e-05
1.73828e-05
2.15988e-05
2.15612e-05
1.73823e-05
1.73834e-05
1.73817e-05
1.73827e-05
1.73834e-05
1.73792e-05
1.73825e-05
2.15964e-05
2.15649e-05
1.73828e-05
1.73803e-05
1.73819e-05
2.15659e-05
2.15954e-05
2.15689e-05
1.73821e-05
1.73828e-05
1.73809e-05
1.73814e-05
2.15946e-05
2.15607e-05
1.73818e-05
1.73827e-05
1.73808e-05
1.73815e-05
1.73825e-05
1.73785e-05
1.73812e-05
2.15946e-05
2.15671e-05
1.73819e-05
1.73797e-05
1.73806e-05
2.1567e-05
2.15972e-05
2.15667e-05
1.7381e-05
1.73815e-05
1.73789e-05
1.73793e-05
2.15899e-05
2.15612e-05
1.73809e-05
1.73815e-05
1.73789e-05
1.73793e-05
1.73812e-05
1.73768e-05
1.7379e-05
2.15947e-05
2.15667e-05
1.73807e-05
1.73782e-05
1.73785e-05
2.15659e-05
2.15953e-05
2.15637e-05
1.7379e-05
1.73794e-05
1.7376e-05
1.73763e-05
2.15885e-05
2.15598e-05
1.7379e-05
1.73794e-05
1.7376e-05
1.73764e-05
1.73791e-05
1.73741e-05
1.73758e-05
2.15938e-05
2.15641e-05
1.73786e-05
1.73758e-05
1.73753e-05
2.15621e-05
2.15914e-05
2.1561e-05
1.73766e-05
1.73769e-05
1.73737e-05
1.73739e-05
2.15862e-05
2.15587e-05
1.73766e-05
1.73769e-05
1.73736e-05
1.73739e-05
1.73764e-05
1.7372e-05
1.73734e-05
2.15917e-05
2.15607e-05
1.73759e-05
1.73736e-05
1.73728e-05
2.15595e-05
2.15882e-05
2.15588e-05
1.73753e-05
1.73754e-05
1.73684e-05
1.73686e-05
2.15856e-05
2.15566e-05
1.73751e-05
1.73753e-05
1.73681e-05
1.73684e-05
1.73749e-05
1.73669e-05
1.73682e-05
2.1589e-05
2.15588e-05
1.73743e-05
1.73683e-05
1.73674e-05
2.15578e-05
2.15834e-05
2.12837e-05
1.73733e-05
1.73734e-05
1.71157e-05
1.7116e-05
2.15813e-05
2.12823e-05
1.7373e-05
1.73733e-05
1.71162e-05
1.71152e-05
1.73731e-05
1.71158e-05
1.71155e-05
2.15842e-05
2.1284e-05
1.73723e-05
1.71163e-05
1.71155e-05
2.12837e-05
2.09429e-05
1.68037e-05
1.68039e-05
2.09418e-05
1.68044e-05
1.68031e-05
1.30219e-05
1.30219e-05
1.30216e-05
1.68034e-05
2.09428e-05
1.68037e-05
1.31188e-05
1.31189e-05
1.31196e-05
1.31194e-05
5.66603e-05
6.98626e-05
5.66582e-05
6.98631e-05
6.91594e-05
6.91641e-05
5.66635e-05
6.98678e-05
5.66613e-05
6.98683e-05
1.3119e-05
1.31196e-05
1.31195e-05
1.31191e-05
1.31193e-05
1.31197e-05
1.31198e-05
3.57356e-05
4.939e-05
1.42997e-05
1.73673e-05
3.57434e-05
4.93877e-05
1.42999e-05
6.91579e-05
6.91627e-05
3.57358e-05
1.43004e-05
4.93925e-05
1.73679e-05
3.57445e-05
1.43006e-05
4.93902e-05
6.09192e-05
6.09307e-05
2.1553e-05
6.09197e-05
6.09313e-05
5.66592e-05
6.98608e-05
5.66568e-05
6.98616e-05
6.91577e-05
6.91626e-05
5.66623e-05
6.9866e-05
5.66597e-05
6.98668e-05
1.31194e-05
1.31198e-05
1.31199e-05
1.31195e-05
1.31197e-05
1.31201e-05
1.31202e-05
3.57346e-05
4.93895e-05
1.43007e-05
1.73695e-05
3.57411e-05
4.93882e-05
1.43009e-05
6.91558e-05
6.91611e-05
3.57349e-05
1.43014e-05
4.93898e-05
1.737e-05
3.57415e-05
1.43015e-05
4.939e-05
6.09179e-05
6.09295e-05
2.15508e-05
6.09191e-05
6.09309e-05
5.66597e-05
6.98603e-05
5.66567e-05
6.98614e-05
6.91566e-05
6.91617e-05
5.66628e-05
6.98653e-05
5.66595e-05
6.98665e-05
1.31199e-05
1.31202e-05
1.31204e-05
1.312e-05
1.31202e-05
1.31206e-05
1.31207e-05
3.57376e-05
4.93927e-05
1.43015e-05
1.73714e-05
3.57428e-05
4.93931e-05
1.43017e-05
6.91549e-05
6.91605e-05
3.57376e-05
1.43022e-05
4.93942e-05
1.73723e-05
3.5743e-05
1.43023e-05
4.93951e-05
6.09185e-05
6.09302e-05
2.15495e-05
6.09202e-05
6.09319e-05
5.66614e-05
6.98603e-05
5.6658e-05
6.98616e-05
6.9156e-05
6.91613e-05
5.66647e-05
6.98654e-05
5.6661e-05
6.98666e-05
1.31203e-05
1.31207e-05
1.31209e-05
1.31204e-05
1.31206e-05
1.3121e-05
1.31212e-05
3.57414e-05
4.93961e-05
1.43022e-05
1.73727e-05
3.57467e-05
4.93953e-05
1.43023e-05
6.91547e-05
6.91605e-05
3.57423e-05
1.4303e-05
4.93983e-05
1.73741e-05
3.57472e-05
1.43032e-05
4.93986e-05
6.092e-05
6.09317e-05
2.155e-05
6.0922e-05
6.09337e-05
5.66639e-05
6.98607e-05
5.66603e-05
6.98621e-05
6.91559e-05
6.91614e-05
5.66673e-05
6.98656e-05
5.66634e-05
6.9867e-05
1.31207e-05
1.31211e-05
1.31213e-05
1.31208e-05
1.3121e-05
1.31214e-05
1.31216e-05
3.57454e-05
4.93984e-05
1.43028e-05
1.73738e-05
3.57506e-05
4.93978e-05
1.43029e-05
6.91548e-05
6.91607e-05
3.5749e-05
1.43041e-05
4.94021e-05
1.73754e-05
3.57539e-05
1.43042e-05
4.94025e-05
6.09222e-05
6.09338e-05
2.15509e-05
6.09242e-05
6.09359e-05
5.6667e-05
6.98612e-05
5.66631e-05
6.98627e-05
6.91562e-05
6.91618e-05
5.66702e-05
6.98661e-05
5.66661e-05
6.98675e-05
1.31211e-05
1.31215e-05
1.31218e-05
1.31212e-05
1.31214e-05
1.31218e-05
1.3122e-05
3.57491e-05
4.94007e-05
1.43033e-05
1.73745e-05
3.57545e-05
4.94e-05
1.43034e-05
6.91553e-05
6.91613e-05
3.57515e-05
1.43047e-05
4.94053e-05
1.73765e-05
3.57575e-05
1.43048e-05
4.94053e-05
6.09244e-05
6.0936e-05
2.15515e-05
6.09264e-05
6.09382e-05
5.66706e-05
6.98619e-05
5.66666e-05
6.98633e-05
6.91567e-05
6.91624e-05
5.66736e-05
6.98667e-05
5.66694e-05
6.98682e-05
1.31215e-05
1.31219e-05
1.31221e-05
1.31216e-05
1.31219e-05
1.31222e-05
1.31224e-05
3.57528e-05
4.94029e-05
1.43038e-05
1.73754e-05
3.57581e-05
4.94023e-05
1.43039e-05
6.91559e-05
6.91619e-05
3.57552e-05
1.43052e-05
4.94078e-05
1.73773e-05
3.57608e-05
1.43053e-05
4.94077e-05
6.09266e-05
6.09382e-05
2.15521e-05
6.09285e-05
6.09402e-05
5.6674e-05
6.98626e-05
5.66702e-05
6.98641e-05
6.91575e-05
6.91632e-05
5.66771e-05
6.98674e-05
5.66729e-05
6.98689e-05
1.3122e-05
1.31223e-05
1.31226e-05
1.3122e-05
1.31223e-05
1.31226e-05
1.31229e-05
3.57564e-05
4.9405e-05
1.43043e-05
1.73761e-05
3.57618e-05
4.94041e-05
1.43044e-05
6.91566e-05
6.91626e-05
3.57582e-05
1.43057e-05
4.94098e-05
1.73784e-05
3.57637e-05
1.43058e-05
4.94096e-05
6.09285e-05
6.09401e-05
2.15531e-05
6.09304e-05
6.0942e-05
5.66768e-05
6.98634e-05
5.66732e-05
6.98649e-05
6.91583e-05
6.9164e-05
5.66798e-05
6.98682e-05
5.6676e-05
6.98696e-05
1.31224e-05
1.31228e-05
1.3123e-05
1.31225e-05
1.31227e-05
1.31231e-05
1.31233e-05
3.57597e-05
4.94066e-05
1.43049e-05
1.73767e-05
3.57652e-05
4.94056e-05
1.4305e-05
6.91573e-05
6.91632e-05
3.57613e-05
1.43062e-05
4.94114e-05
1.73793e-05
3.5767e-05
1.43062e-05
4.94112e-05
6.09302e-05
6.09416e-05
2.15542e-05
6.09318e-05
6.09434e-05
5.66786e-05
6.9864e-05
5.66754e-05
6.98654e-05
6.91591e-05
6.91648e-05
5.66816e-05
6.98689e-05
5.66782e-05
6.98703e-05
1.31228e-05
1.31232e-05
1.31234e-05
1.31229e-05
1.31231e-05
1.31235e-05
1.31236e-05
3.57629e-05
4.9408e-05
1.43056e-05
1.73776e-05
3.57684e-05
4.94068e-05
1.43057e-05
6.91578e-05
6.91637e-05
3.57638e-05
1.43068e-05
4.94126e-05
1.73801e-05
3.57697e-05
1.43069e-05
4.94124e-05
6.09313e-05
6.09427e-05
2.15555e-05
6.09327e-05
6.09444e-05
5.66796e-05
6.98645e-05
5.66767e-05
6.98659e-05
6.91597e-05
6.91654e-05
5.66826e-05
6.98694e-05
5.66794e-05
6.98708e-05
1.31233e-05
1.31236e-05
1.31238e-05
1.31232e-05
1.31235e-05
1.31239e-05
1.31241e-05
3.57654e-05
4.94091e-05
1.43063e-05
1.73786e-05
3.57711e-05
4.94075e-05
1.43064e-05
6.91582e-05
6.91641e-05
3.57649e-05
1.43073e-05
4.94131e-05
1.73805e-05
3.57711e-05
1.43074e-05
4.94131e-05
6.09318e-05
6.09434e-05
2.15568e-05
6.0933e-05
6.09447e-05
5.668e-05
6.98649e-05
5.66773e-05
6.98663e-05
6.91603e-05
6.91658e-05
5.6683e-05
6.98698e-05
5.668e-05
6.98711e-05
1.31236e-05
1.3124e-05
1.31242e-05
1.31236e-05
1.31239e-05
1.31243e-05
1.31245e-05
3.57666e-05
4.94094e-05
1.4307e-05
1.73791e-05
3.57728e-05
4.94076e-05
1.43071e-05
6.91586e-05
6.91645e-05
3.57662e-05
1.43079e-05
4.94132e-05
1.73809e-05
3.57723e-05
1.4308e-05
4.94132e-05
6.09319e-05
6.09434e-05
2.15581e-05
6.09331e-05
6.09446e-05
5.668e-05
6.98652e-05
5.66774e-05
6.98665e-05
6.91607e-05
6.91662e-05
5.66831e-05
6.98701e-05
5.66802e-05
6.98713e-05
1.31241e-05
1.31244e-05
1.31246e-05
1.31241e-05
1.31243e-05
1.31247e-05
1.31248e-05
3.5767e-05
4.94093e-05
1.43078e-05
1.73798e-05
3.57734e-05
4.94073e-05
1.43079e-05
6.91589e-05
6.91647e-05
3.57671e-05
1.43086e-05
4.94133e-05
1.73816e-05
3.57734e-05
1.43087e-05
4.94132e-05
6.09319e-05
6.09433e-05
2.1559e-05
6.09329e-05
6.09446e-05
5.66796e-05
6.98654e-05
5.66772e-05
6.98666e-05
6.9161e-05
6.91665e-05
5.66829e-05
6.98702e-05
5.66801e-05
6.98714e-05
1.31244e-05
1.31248e-05
1.31249e-05
1.31245e-05
1.31246e-05
1.3125e-05
1.31252e-05
3.57676e-05
4.94091e-05
1.43084e-05
1.73803e-05
3.57738e-05
4.94073e-05
1.43085e-05
6.91591e-05
6.91649e-05
3.57674e-05
1.43092e-05
4.94132e-05
1.73823e-05
3.57739e-05
1.43093e-05
4.9413e-05
6.09315e-05
6.09432e-05
2.15599e-05
6.09325e-05
6.09444e-05
5.66791e-05
6.98654e-05
5.66768e-05
6.98666e-05
6.91613e-05
6.91667e-05
5.66823e-05
6.98702e-05
5.66797e-05
6.98713e-05
1.31247e-05
1.31251e-05
1.31253e-05
1.31246e-05
1.31249e-05
1.31252e-05
1.31253e-05
3.57681e-05
4.94091e-05
1.4309e-05
1.73809e-05
3.57746e-05
4.94073e-05
1.43091e-05
6.91592e-05
6.91651e-05
3.57668e-05
1.43098e-05
4.94131e-05
1.73828e-05
3.57737e-05
1.43098e-05
4.94129e-05
6.09312e-05
6.09429e-05
2.15605e-05
6.09322e-05
6.0944e-05
5.66783e-05
6.98654e-05
5.66761e-05
6.98666e-05
6.91613e-05
6.91668e-05
5.66815e-05
6.98701e-05
5.6679e-05
6.98713e-05
1.3125e-05
1.31253e-05
1.31253e-05
1.31244e-05
1.31248e-05
1.3125e-05
1.31248e-05
3.57677e-05
4.94087e-05
1.43096e-05
1.7381e-05
3.57744e-05
4.94066e-05
1.43095e-05
6.91594e-05
6.91652e-05
3.57663e-05
1.431e-05
4.94127e-05
1.73826e-05
3.57731e-05
1.43098e-05
4.94123e-05
6.09309e-05
6.09425e-05
2.15608e-05
6.09318e-05
6.09436e-05
5.66772e-05
6.98653e-05
5.66752e-05
6.98665e-05
6.91614e-05
6.9167e-05
5.66805e-05
6.98701e-05
5.66781e-05
6.98712e-05
1.31246e-05
1.31248e-05
1.31247e-05
1.31237e-05
1.31237e-05
1.31244e-05
1.31244e-05
3.57672e-05
4.9408e-05
1.43096e-05
1.7381e-05
3.57739e-05
4.94059e-05
1.43094e-05
6.91594e-05
6.91652e-05
3.57653e-05
1.43101e-05
4.94121e-05
1.73827e-05
3.57723e-05
1.43098e-05
4.94114e-05
6.09305e-05
6.09422e-05
2.15611e-05
6.09314e-05
6.09432e-05
5.6676e-05
6.98653e-05
5.66741e-05
6.98666e-05
6.91615e-05
6.91671e-05
5.66795e-05
6.98699e-05
5.66772e-05
6.98713e-05
1.31236e-05
1.31244e-05
1.31243e-05
1.31232e-05
1.31233e-05
1.31241e-05
1.31239e-05
3.57664e-05
4.94071e-05
1.43095e-05
1.73805e-05
3.57733e-05
4.94048e-05
1.43092e-05
6.91594e-05
6.91654e-05
3.57644e-05
1.431e-05
4.94114e-05
1.73821e-05
3.57714e-05
1.43097e-05
4.94101e-05
6.09302e-05
6.09418e-05
2.1561e-05
6.0931e-05
6.09426e-05
5.66748e-05
6.98653e-05
5.6673e-05
6.98666e-05
6.91615e-05
6.91673e-05
5.66785e-05
6.987e-05
5.66763e-05
6.98714e-05
1.31233e-05
1.31241e-05
1.31239e-05
1.31229e-05
1.31231e-05
1.31237e-05
1.31236e-05
3.57654e-05
4.94059e-05
1.43093e-05
1.73801e-05
3.57724e-05
4.94037e-05
1.4309e-05
6.91594e-05
6.91656e-05
3.57632e-05
1.43097e-05
4.94107e-05
1.73815e-05
3.57702e-05
1.43094e-05
4.94086e-05
6.093e-05
6.09415e-05
2.15611e-05
6.09307e-05
6.09422e-05
5.66741e-05
6.98653e-05
5.66722e-05
6.98668e-05
6.91614e-05
6.91676e-05
5.66777e-05
6.98702e-05
5.66756e-05
6.98717e-05
1.31231e-05
1.31236e-05
1.31236e-05
1.31224e-05
1.31227e-05
1.31231e-05
1.31232e-05
3.57646e-05
4.94051e-05
1.4309e-05
1.73797e-05
3.57715e-05
4.94026e-05
1.43086e-05
6.91595e-05
6.9166e-05
3.57625e-05
1.43093e-05
4.94097e-05
1.7381e-05
3.57693e-05
1.43088e-05
4.94074e-05
6.09304e-05
6.09417e-05
2.15618e-05
6.09317e-05
6.09428e-05
5.66739e-05
6.98654e-05
5.6672e-05
6.98672e-05
6.91614e-05
6.91684e-05
5.66772e-05
6.98704e-05
5.66751e-05
6.98722e-05
1.31227e-05
1.3123e-05
1.31231e-05
1.31224e-05
1.31223e-05
1.31227e-05
1.31226e-05
3.57641e-05
4.94042e-05
1.43084e-05
1.73794e-05
3.57709e-05
4.94014e-05
1.43079e-05
6.91598e-05
6.91673e-05
3.5762e-05
1.43085e-05
4.94085e-05
1.73807e-05
3.5769e-05
1.43079e-05
4.94057e-05
6.09343e-05
6.09447e-05
2.15627e-05
6.09349e-05
6.09457e-05
5.66753e-05
6.98659e-05
5.66729e-05
6.98683e-05
6.9162e-05
6.91703e-05
5.66784e-05
6.98709e-05
5.66758e-05
6.98734e-05
1.31223e-05
1.31227e-05
1.31226e-05
1.3122e-05
1.31219e-05
1.31223e-05
1.31222e-05
3.57645e-05
4.94032e-05
1.43078e-05
1.73791e-05
3.57708e-05
4.93997e-05
1.43073e-05
6.91605e-05
6.91691e-05
3.57614e-05
1.43078e-05
4.94065e-05
1.73804e-05
3.57681e-05
1.43073e-05
4.94028e-05
6.09386e-05
6.09495e-05
2.15626e-05
6.09374e-05
6.09486e-05
5.66802e-05
6.98666e-05
5.66768e-05
6.98699e-05
6.91621e-05
6.91722e-05
5.66824e-05
6.98718e-05
5.66792e-05
6.98751e-05
1.31218e-05
1.31222e-05
1.31221e-05
1.3121e-05
1.31208e-05
1.3121e-05
1.3121e-05
3.57667e-05
4.9402e-05
1.43073e-05
1.73789e-05
3.57728e-05
4.93976e-05
1.43067e-05
6.91605e-05
6.91707e-05
3.57632e-05
1.43073e-05
4.94051e-05
1.73801e-05
3.57695e-05
1.43067e-05
4.94011e-05
6.09416e-05
6.09528e-05
2.1564e-05
6.09386e-05
6.095e-05
5.66881e-05
6.98676e-05
5.66844e-05
6.98724e-05
6.91613e-05
6.91747e-05
5.66897e-05
6.98728e-05
5.66857e-05
6.98777e-05
1.31206e-05
1.31208e-05
1.31208e-05
1.31195e-05
1.31192e-05
1.31194e-05
1.31194e-05
3.57689e-05
4.9403e-05
1.43067e-05
1.73786e-05
3.57756e-05
4.93969e-05
1.4306e-05
6.91594e-05
6.9173e-05
3.57657e-05
1.43066e-05
4.94062e-05
1.73797e-05
3.57722e-05
1.43058e-05
4.94003e-05
6.09467e-05
6.09582e-05
2.1564e-05
6.09404e-05
6.09521e-05
5.6694e-05
6.98689e-05
5.66914e-05
6.98767e-05
6.91595e-05
6.91784e-05
5.66964e-05
6.98741e-05
5.66933e-05
6.98819e-05
1.3119e-05
1.31192e-05
1.31192e-05
1.31176e-05
1.31171e-05
1.31175e-05
1.31174e-05
3.57701e-05
4.94071e-05
1.43057e-05
1.73775e-05
3.57776e-05
4.93964e-05
1.43047e-05
6.91575e-05
6.91767e-05
3.57677e-05
1.43056e-05
4.94102e-05
1.73787e-05
3.57751e-05
1.43046e-05
4.93996e-05
6.09526e-05
6.09644e-05
2.15613e-05
6.0938e-05
6.09501e-05
5.66981e-05
6.98706e-05
5.66982e-05
6.98826e-05
6.91557e-05
6.91832e-05
5.67025e-05
6.98757e-05
5.67008e-05
6.98877e-05
1.31167e-05
1.31171e-05
1.31169e-05
1.31165e-05
1.31163e-05
1.31166e-05
1.31162e-05
3.57688e-05
4.94137e-05
1.4304e-05
1.73751e-05
3.57788e-05
4.93938e-05
1.43027e-05
6.9154e-05
6.91819e-05
3.57656e-05
1.4304e-05
4.94163e-05
1.73766e-05
3.57758e-05
1.43028e-05
4.93964e-05
6.09536e-05
6.09656e-05
2.15573e-05
6.09259e-05
6.0938e-05
5.66967e-05
6.98685e-05
5.66974e-05
6.98867e-05
6.91481e-05
6.91884e-05
5.67025e-05
6.98736e-05
5.67023e-05
6.98916e-05
1.31163e-05
1.31166e-05
1.31163e-05
1.31166e-05
1.31164e-05
1.31168e-05
1.31164e-05
3.57643e-05
4.94242e-05
1.43025e-05
1.73725e-05
3.57793e-05
4.93857e-05
1.43015e-05
6.91471e-05
6.91879e-05
3.57609e-05
1.43026e-05
4.9426e-05
1.73742e-05
3.57759e-05
1.43016e-05
4.93872e-05
6.09483e-05
6.09602e-05
2.15526e-05
6.0901e-05
6.0913e-05
5.6689e-05
6.98573e-05
5.66917e-05
6.98878e-05
6.91341e-05
6.91926e-05
5.66949e-05
6.98619e-05
5.66973e-05
6.98922e-05
1.31164e-05
1.31167e-05
1.31163e-05
1.31166e-05
1.31164e-05
1.31168e-05
1.31164e-05
3.57562e-05
4.94385e-05
1.43022e-05
1.73707e-05
3.57822e-05
4.93636e-05
1.4301e-05
6.91342e-05
6.91929e-05
3.57528e-05
1.43023e-05
4.94391e-05
1.73722e-05
3.57787e-05
1.4301e-05
4.93638e-05
6.09346e-05
6.09464e-05
2.15505e-05
6.08577e-05
6.08694e-05
5.66524e-05
6.98311e-05
5.66704e-05
6.98864e-05
6.91119e-05
6.91945e-05
5.66569e-05
6.98353e-05
5.66753e-05
6.98906e-05
1.31142e-05
1.31144e-05
1.31141e-05
1.30893e-05
1.30894e-05
1.30895e-05
1.30891e-05
3.56821e-05
4.94567e-05
1.42965e-05
1.73349e-05
3.57802e-05
4.92818e-05
1.43009e-05
6.91126e-05
6.91953e-05
3.56784e-05
1.42965e-05
4.94563e-05
1.7336e-05
3.57767e-05
1.43009e-05
4.92809e-05
6.09053e-05
6.09169e-05
2.15107e-05
6.07625e-05
6.07741e-05
5.0688e-05
6.90784e-05
5.62133e-05
7.17616e-05
6.88197e-05
6.12837e-05
5.0691e-05
6.90809e-05
5.62169e-05
7.17657e-05
1.23698e-05
1.24582e-05
1.24583e-05
1.32756e-05
1.23735e-05
1.2511e-05
1.25112e-05
3.41775e-05
4.85878e-05
1.41372e-05
1.629e-05
3.51649e-05
5.09892e-05
1.38e-05
6.88204e-05
6.12845e-05
3.41741e-05
1.4137e-05
4.85866e-05
1.62901e-05
3.51611e-05
1.37997e-05
5.09873e-05
6.05038e-05
6.0515e-05
2.00948e-05
5.92751e-05
5.92837e-05
6.91639e-05
6.91654e-05
6.0919e-05
6.09277e-05
6.9864e-05
5.6661e-05
6.98685e-05
6.98678e-05
5.66616e-05
4.93909e-05
1.4299e-05
3.57403e-05
1.73676e-05
4.93971e-05
1.42996e-05
4.93982e-05
3.57412e-05
6.91651e-05
6.91607e-05
2.1578e-05
6.09299e-05
6.09144e-05
6.09287e-05
6.09133e-05
6.9161e-05
6.91563e-05
6.98692e-05
5.66644e-05
4.93958e-05
1.42999e-05
3.57444e-05
6.98637e-05
5.66615e-05
1.42998e-05
4.93913e-05
3.57427e-05
3.57457e-05
1.73658e-05
4.93888e-05
1.42994e-05
4.93895e-05
1.42993e-05
3.57382e-05
5.66577e-05
6.98663e-05
6.98656e-05
5.66614e-05
3.57468e-05
1.73676e-05
1.42998e-05
4.93939e-05
1.42996e-05
4.93945e-05
3.57388e-05
5.66568e-05
6.98642e-05
6.98635e-05
5.66605e-05
6.9164e-05
6.09228e-05
6.09175e-05
6.91636e-05
1.43003e-05
4.93918e-05
3.57394e-05
1.73674e-05
1.43003e-05
4.93975e-05
4.93984e-05
3.57424e-05
6.98644e-05
5.66582e-05
6.98685e-05
6.98677e-05
5.66613e-05
2.15796e-05
6.09207e-05
6.09323e-05
6.09197e-05
6.09311e-05
6.91633e-05
6.91589e-05
6.91655e-05
6.91611e-05
6.91583e-05
6.91626e-05
6.91597e-05
6.91641e-05
6.09161e-05
6.09249e-05
2.15453e-05
6.09171e-05
6.09264e-05
6.91615e-05
6.9157e-05
6.91632e-05
6.91585e-05
2.15745e-05
6.09162e-05
6.09259e-05
6.09144e-05
6.09238e-05
5.66607e-05
6.9867e-05
5.66569e-05
6.98676e-05
3.57379e-05
4.93899e-05
1.42992e-05
1.73687e-05
3.57442e-05
4.93897e-05
1.42994e-05
3.57388e-05
4.93965e-05
1.42997e-05
1.73693e-05
3.57452e-05
4.9395e-05
1.43e-05
5.66556e-05
6.98622e-05
6.98615e-05
5.66595e-05
5.66561e-05
6.98667e-05
6.9866e-05
5.666e-05
3.57422e-05
1.73695e-05
4.93878e-05
1.43001e-05
4.93878e-05
1.42998e-05
3.57369e-05
3.57432e-05
1.73701e-05
4.93926e-05
1.43006e-05
4.9393e-05
1.43003e-05
3.57379e-05
6.09272e-05
6.09123e-05
2.1547e-05
6.09287e-05
6.09139e-05
6.91552e-05
6.91602e-05
6.91633e-05
6.91585e-05
2.15747e-05
6.0928e-05
6.09137e-05
6.09261e-05
6.09119e-05
6.91595e-05
6.91544e-05
3.5742e-05
4.93963e-05
1.43001e-05
1.73684e-05
3.57481e-05
4.93955e-05
1.43005e-05
5.66606e-05
6.98621e-05
5.66566e-05
6.98627e-05
3.57402e-05
1.43e-05
4.93918e-05
1.73687e-05
3.57465e-05
1.43003e-05
4.9391e-05
5.66586e-05
6.98674e-05
6.98667e-05
5.66627e-05
3.57461e-05
1.73692e-05
4.93944e-05
1.43012e-05
4.93939e-05
1.43008e-05
3.57408e-05
5.66557e-05
6.98619e-05
6.98612e-05
5.66597e-05
3.57444e-05
1.73696e-05
1.4301e-05
4.939e-05
1.43007e-05
4.93895e-05
3.57391e-05
5.66606e-05
6.98648e-05
5.66567e-05
6.98655e-05
3.57367e-05
1.43e-05
4.93927e-05
1.73694e-05
3.57426e-05
1.43003e-05
4.9392e-05
5.66597e-05
6.98627e-05
5.66559e-05
6.98633e-05
3.57399e-05
1.73681e-05
4.93881e-05
1.43005e-05
4.93882e-05
1.43003e-05
3.57352e-05
5.6656e-05
6.98648e-05
6.9864e-05
5.66599e-05
3.57409e-05
1.73703e-05
1.4301e-05
4.93901e-05
1.43007e-05
4.93902e-05
3.57359e-05
5.66552e-05
6.98625e-05
6.98618e-05
5.6659e-05
6.09202e-05
6.09146e-05
2.15432e-05
6.09207e-05
6.09159e-05
6.9158e-05
6.91623e-05
6.91617e-05
6.91567e-05
2.1572e-05
6.09202e-05
6.09152e-05
6.09185e-05
6.09133e-05
6.91612e-05
6.91568e-05
3.57399e-05
1.43005e-05
4.93961e-05
1.7369e-05
3.57461e-05
1.43008e-05
4.93953e-05
5.66572e-05
6.98629e-05
5.66535e-05
6.98635e-05
5.66603e-05
6.9867e-05
5.66565e-05
6.98676e-05
3.57403e-05
1.73686e-05
1.43011e-05
4.93886e-05
1.4301e-05
4.93884e-05
3.57354e-05
3.5744e-05
1.73696e-05
1.43014e-05
4.93937e-05
1.43011e-05
4.93937e-05
3.5739e-05
5.66526e-05
6.98627e-05
6.9862e-05
5.66564e-05
5.66555e-05
6.98667e-05
6.9866e-05
5.66594e-05
6.91577e-05
6.91623e-05
6.91599e-05
6.91645e-05
2.15811e-05
6.09191e-05
6.09308e-05
6.09172e-05
6.09287e-05
6.91615e-05
6.91568e-05
6.91637e-05
6.9159e-05
6.9156e-05
6.91607e-05
6.91577e-05
6.91625e-05
6.09137e-05
6.09235e-05
2.15498e-05
6.09161e-05
6.09261e-05
6.91602e-05
6.91553e-05
6.91621e-05
6.9157e-05
2.15804e-05
6.09166e-05
6.0927e-05
6.09138e-05
6.09239e-05
5.66597e-05
6.98651e-05
5.66554e-05
6.98659e-05
3.57373e-05
4.93891e-05
1.43003e-05
1.7371e-05
3.57417e-05
4.93907e-05
1.43006e-05
3.57382e-05
4.93937e-05
1.43008e-05
1.73718e-05
3.57427e-05
4.93945e-05
1.43011e-05
5.66547e-05
6.98615e-05
6.98603e-05
5.66592e-05
5.66551e-05
6.98652e-05
6.98643e-05
5.66596e-05
3.57422e-05
1.73716e-05
4.93942e-05
1.4301e-05
4.93916e-05
1.43008e-05
3.57381e-05
3.57431e-05
1.73725e-05
4.9393e-05
1.43015e-05
4.93927e-05
1.43014e-05
3.57387e-05
6.09255e-05
6.09116e-05
2.15518e-05
6.09278e-05
6.09137e-05
6.91537e-05
6.91589e-05
6.91621e-05
6.91571e-05
2.1581e-05
6.09279e-05
6.09142e-05
6.09254e-05
6.09118e-05
6.91586e-05
6.91532e-05
3.5741e-05
4.93954e-05
1.43013e-05
1.73708e-05
3.57453e-05
4.93957e-05
1.43017e-05
5.66592e-05
6.98604e-05
5.66549e-05
6.98613e-05
3.57393e-05
1.43012e-05
4.93911e-05
1.73715e-05
3.57437e-05
1.43015e-05
4.93914e-05
5.66575e-05
6.98665e-05
6.98654e-05
5.66622e-05
3.57457e-05
1.73715e-05
4.93978e-05
1.43022e-05
4.93962e-05
1.43019e-05
3.57419e-05
5.66545e-05
6.98612e-05
6.98599e-05
5.66592e-05
3.57442e-05
1.73722e-05
1.43021e-05
4.93946e-05
1.43018e-05
4.93925e-05
3.57405e-05
5.66596e-05
6.98633e-05
5.66553e-05
6.98643e-05
3.5736e-05
1.43011e-05
4.93907e-05
1.73718e-05
3.57403e-05
1.43014e-05
4.93912e-05
5.66587e-05
6.9861e-05
5.66546e-05
6.98619e-05
3.57394e-05
1.73702e-05
4.93908e-05
1.43013e-05
4.9389e-05
1.43012e-05
3.57361e-05
5.66551e-05
6.98641e-05
6.98629e-05
5.66596e-05
3.57407e-05
1.73725e-05
1.43018e-05
4.93932e-05
1.43016e-05
4.93914e-05
3.5737e-05
5.66544e-05
6.98617e-05
6.98605e-05
5.66588e-05
6.09183e-05
6.09128e-05
2.15495e-05
6.09208e-05
6.09152e-05
6.91557e-05
6.91604e-05
6.91607e-05
6.91553e-05
2.15779e-05
6.09219e-05
6.09159e-05
6.09191e-05
6.0913e-05
6.91599e-05
6.9155e-05
3.57391e-05
1.43015e-05
4.9395e-05
1.73712e-05
3.57434e-05
1.43018e-05
4.93973e-05
5.6656e-05
6.98612e-05
5.66519e-05
6.9862e-05
5.66591e-05
6.98652e-05
5.66548e-05
6.98662e-05
3.57398e-05
1.73708e-05
1.4302e-05
4.93927e-05
1.43018e-05
4.93903e-05
3.57362e-05
3.57438e-05
1.7372e-05
1.43023e-05
4.93981e-05
1.43021e-05
4.93966e-05
3.57399e-05
5.66517e-05
6.98617e-05
6.98606e-05
5.66561e-05
5.66545e-05
6.98659e-05
6.98647e-05
5.66592e-05
6.9156e-05
6.91608e-05
6.91582e-05
6.91631e-05
2.15831e-05
6.09195e-05
6.09313e-05
6.09169e-05
6.09286e-05
6.91604e-05
6.91554e-05
6.91626e-05
6.91577e-05
6.91548e-05
6.91599e-05
6.91567e-05
6.91618e-05
6.09144e-05
6.09248e-05
2.15505e-05
6.09173e-05
6.0928e-05
6.91598e-05
6.91546e-05
6.91617e-05
6.91564e-05
2.15827e-05
6.09183e-05
6.0929e-05
6.09152e-05
6.09258e-05
5.666e-05
6.98638e-05
5.66552e-05
6.98648e-05
3.57401e-05
4.93954e-05
1.43012e-05
1.73729e-05
3.57433e-05
4.93971e-05
1.43014e-05
3.57401e-05
4.93943e-05
1.43017e-05
1.73737e-05
3.57438e-05
4.93962e-05