/*--------------------------------*- C++ -*----------------------------------*\
| =========                 |                                                 |
| \\      /  F ield         | OpenFOAM: The Open Source CFD Toolbox           |
|  \\    /   O peration     | Version:  v1912                                 |
|   \\  /    A nd           | Website:  www.openfoam.com                      |
|    \\/     M anipulation  |                                                 |
\*---------------------------------------------------------------------------*/
FoamFile
{
    version     2.0;
    format      ascii;
    class       volScalarField;
    location    "120";
    object      nut;
}
// * * * * * * * * * * * * * * * * * * * * * * * * * * * * * * * * * * * * * //

dimensions      [0 2 -1 0 0 0 0];


internalField   nonuniform List<scalar> 
57062
(
0.000127563
9.23746e-05
9.2366e-05
8.51699e-05
0.00012756
9.23784e-05
9.23672e-05
8.51487e-05
0.000127557
9.23815e-05
9.23721e-05
8.51479e-05
0.000127554
9.23825e-05
9.2377e-05
8.5145e-05
0.000127552
9.23826e-05
9.23792e-05
8.51408e-05
0.000127551
9.2389e-05
9.23779e-05
8.51422e-05
0.00012755
9.23899e-05
9.23816e-05
8.51464e-05
0.000127549
9.23949e-05
9.23863e-05
8.51523e-05
0.00012755
9.2387e-05
9.23833e-05
8.51604e-05
0.000127552
9.23911e-05
9.2393e-05
8.51666e-05
0.000127555
9.23994e-05
9.23933e-05
8.51702e-05
0.000127552
9.23961e-05
9.23907e-05
8.51731e-05
0.000127554
9.24028e-05
9.23954e-05
8.51753e-05
0.000127555
9.24025e-05
9.23986e-05
8.5178e-05
0.000127557
9.24038e-05
9.2401e-05
8.51831e-05
0.000127557
9.24069e-05
9.2404e-05
8.51862e-05
0.000127551
9.24066e-05
9.24026e-05
8.51906e-05
0.000127543
9.24041e-05
9.24019e-05
8.51917e-05
0.000127535
9.24033e-05
9.23967e-05
8.51968e-05
0.000127531
9.24002e-05
9.23934e-05
8.52029e-05
0.000127524
9.24013e-05
9.23944e-05
8.52087e-05
0.000127527
9.24021e-05
9.23955e-05
8.52093e-05
0.000127521
9.24023e-05
9.23956e-05
8.5209e-05
0.000127505
9.24011e-05
9.23939e-05
8.52061e-05
0.000127485
9.23993e-05
9.23917e-05
8.52043e-05
0.000127459
9.23966e-05
9.23896e-05
8.5193e-05
0.000127474
9.23991e-05
9.2393e-05
8.51716e-05
0.000127496
9.24209e-05
9.24146e-05
8.51647e-05
0.000127546
9.24246e-05
9.24174e-05
8.51785e-05
0.000130578
9.33632e-05
9.3359e-05
8.55179e-05
8.51958e-05
9.23478e-05
9.23403e-05
8.51962e-05
9.2362e-05
9.23381e-05
9.23733e-05
9.23574e-05
8.51923e-05
9.23668e-05
9.23714e-05
8.51891e-05
8.51711e-05
8.5177e-05
9.23487e-05
9.23413e-05
9.2355e-05
9.23454e-05
8.51813e-05
8.51801e-05
9.23626e-05
9.23385e-05
9.23661e-05
9.23427e-05
9.23585e-05
9.23767e-05
9.23644e-05
8.51681e-05
8.51805e-05
9.23714e-05
9.23654e-05
9.23712e-05
8.51751e-05
8.51547e-05
8.51684e-05
9.23555e-05
9.2346e-05
9.23583e-05
9.23479e-05
8.51643e-05
8.51737e-05
9.23667e-05
9.23432e-05
9.23695e-05
9.23451e-05
9.23646e-05
9.23804e-05
9.23654e-05
8.51626e-05
8.51638e-05
9.23715e-05
9.23697e-05
9.2375e-05
8.51773e-05
8.514e-05
8.51748e-05
9.23589e-05
9.23481e-05
9.23616e-05
9.23488e-05
8.51533e-05
8.51776e-05
9.23704e-05
9.2346e-05
9.23724e-05
9.23479e-05
9.23663e-05
9.23817e-05
9.23682e-05
8.51451e-05
8.5172e-05
9.23758e-05
9.23752e-05
9.23778e-05
8.51715e-05
8.51418e-05
8.51793e-05
9.23622e-05
9.23491e-05
9.23626e-05
9.23497e-05
8.51494e-05
8.51824e-05
9.23724e-05
9.23479e-05
9.23727e-05
9.23481e-05
9.23683e-05
9.23826e-05
9.23658e-05
8.5139e-05
8.5184e-05
9.2378e-05
9.23785e-05
9.23758e-05
8.51702e-05
8.51451e-05
8.51871e-05
9.23642e-05
9.23504e-05
9.23627e-05
9.23516e-05
8.51492e-05
8.51928e-05
9.23744e-05
9.23487e-05
9.23732e-05
9.23474e-05
9.23705e-05
9.23898e-05
9.2374e-05
8.51468e-05
8.51934e-05
9.23806e-05
9.23779e-05
9.23837e-05
8.51752e-05
8.51516e-05
8.51986e-05
9.23672e-05
9.23532e-05
9.23686e-05
9.2352e-05
8.51567e-05
8.52054e-05
9.23771e-05
9.23484e-05
9.23781e-05
9.23478e-05
9.23744e-05
9.23882e-05
9.23743e-05
8.51559e-05
8.52004e-05
9.23841e-05
9.23848e-05
9.23822e-05
8.51829e-05
8.5164e-05
8.52088e-05
9.23692e-05
9.23562e-05
9.23689e-05
9.23625e-05
8.51715e-05
8.52122e-05
9.23792e-05
9.23502e-05
9.23786e-05
9.23528e-05
9.2375e-05
9.2394e-05
9.2372e-05
8.51639e-05
8.52085e-05
9.23845e-05
9.23863e-05
9.23883e-05
8.51913e-05
8.51761e-05
8.52156e-05
9.23737e-05
9.23635e-05
9.23754e-05
9.23606e-05
8.51843e-05
8.52143e-05
9.23832e-05
9.23533e-05
9.23871e-05
9.23538e-05
9.23766e-05
9.23875e-05
9.23816e-05
8.51748e-05
8.52139e-05
9.23887e-05
9.23847e-05
9.23911e-05
8.52007e-05
8.5182e-05
8.52161e-05
9.23797e-05
9.23593e-05
9.23842e-05
9.23553e-05
8.51845e-05
8.5216e-05
9.23876e-05
9.23553e-05
9.23883e-05
9.23669e-05
9.23814e-05
9.2393e-05
9.23801e-05
8.51832e-05
8.52191e-05
9.23861e-05
9.23925e-05
9.23791e-05
8.52073e-05
8.51796e-05
8.52159e-05
9.2386e-05
9.23614e-05
9.239e-05
9.23711e-05
8.51795e-05
8.52155e-05
9.23893e-05
9.23707e-05
9.23882e-05
9.23622e-05
9.23798e-05
9.23995e-05
9.23737e-05
8.51869e-05
8.52221e-05
9.23817e-05
9.23947e-05
9.23857e-05
8.52107e-05
8.518e-05
8.52179e-05
9.23907e-05
9.23667e-05
9.23765e-05
9.23552e-05
8.51795e-05
8.52188e-05
9.23875e-05
9.23612e-05
9.23801e-05
9.23607e-05
9.23773e-05
9.23971e-05
9.23799e-05
8.51868e-05
8.5223e-05
9.23877e-05
9.23924e-05
9.23897e-05
8.52131e-05
8.51823e-05
8.52229e-05
9.23784e-05
9.23525e-05
9.23748e-05
9.23617e-05
8.51833e-05
8.52247e-05
9.23842e-05
9.23623e-05
9.23958e-05
9.23591e-05
9.23809e-05
9.24016e-05
9.23842e-05
8.51876e-05
8.52244e-05
9.23916e-05
9.23952e-05
9.23936e-05
8.52156e-05
8.51883e-05
8.52282e-05
9.23809e-05
9.23636e-05
9.2386e-05
9.23654e-05
8.51907e-05
8.52304e-05
9.23974e-05
9.23635e-05
9.23974e-05
9.23682e-05
9.23855e-05
9.24031e-05
9.23872e-05
8.51888e-05
8.52278e-05
9.2394e-05
9.23981e-05
9.23944e-05
8.52182e-05
8.51935e-05
8.52329e-05
9.23867e-05
9.23661e-05
9.23903e-05
9.23692e-05
8.51961e-05
8.52341e-05
9.23978e-05
9.23687e-05
9.24032e-05
9.23708e-05
9.23882e-05
9.2402e-05
9.23895e-05
8.51927e-05
8.52309e-05
9.23968e-05
9.24003e-05
9.24048e-05
8.52235e-05
8.51981e-05
8.52373e-05
9.23943e-05
9.23716e-05
9.23934e-05
9.23793e-05
8.52003e-05
8.52394e-05
9.2407e-05
9.23734e-05
9.23996e-05
9.23761e-05
9.23899e-05
9.24082e-05
9.239e-05
8.51962e-05
8.52366e-05
9.24067e-05
9.24043e-05
9.2402e-05
8.52268e-05
8.52022e-05
8.52392e-05
9.23939e-05
9.23817e-05
9.23899e-05
9.2373e-05
8.52057e-05
8.52423e-05
9.23974e-05
9.23746e-05
9.23968e-05
9.23678e-05
9.23923e-05
9.24063e-05
9.23949e-05
8.52028e-05
8.52377e-05
9.24031e-05
9.24031e-05
9.24054e-05
8.52317e-05
8.52045e-05
8.52399e-05
9.23912e-05
9.23762e-05
9.23906e-05
9.23762e-05
8.52093e-05
8.52426e-05
9.24029e-05
9.23707e-05
9.23963e-05
9.23699e-05
9.23952e-05
9.24048e-05
9.23936e-05
8.52045e-05
8.52386e-05
9.24073e-05
9.2402e-05
9.24003e-05
8.52331e-05
8.52052e-05
8.52403e-05
9.23924e-05
9.23818e-05
9.23891e-05
9.23748e-05
8.52092e-05
8.52444e-05
9.23973e-05
9.23724e-05
9.23963e-05
9.23719e-05
9.23978e-05
9.24032e-05
9.23949e-05
8.52054e-05
8.52397e-05
9.24038e-05
9.23976e-05
9.24023e-05
8.52381e-05
8.5205e-05
8.52419e-05
9.23875e-05
9.23754e-05
9.23864e-05
9.23738e-05
8.52118e-05
8.52414e-05
9.23971e-05
9.23722e-05
9.23967e-05
9.23712e-05
9.23962e-05
9.23999e-05
9.2394e-05
8.52069e-05
8.52396e-05
9.2403e-05
9.23932e-05
9.24013e-05
8.5241e-05
8.52103e-05
8.52437e-05
9.23867e-05
9.23739e-05
9.2387e-05
9.23739e-05
8.52133e-05
8.52421e-05
9.23968e-05
9.23717e-05
9.23957e-05
9.23713e-05
9.23938e-05
9.24007e-05
9.23934e-05
8.52107e-05
8.52363e-05
9.2401e-05
9.23938e-05
9.24004e-05
8.52432e-05
8.52147e-05
8.52418e-05
9.2387e-05
9.2374e-05
9.23861e-05
9.23715e-05
8.52085e-05
8.52434e-05
9.23954e-05
9.23718e-05
9.23941e-05
9.2369e-05
9.23936e-05
9.24015e-05
9.23894e-05
8.52094e-05
8.52353e-05
9.24009e-05
9.23947e-05
9.23974e-05
8.52419e-05
8.52139e-05
8.52342e-05
9.23864e-05
9.23718e-05
9.23825e-05
9.23665e-05
8.52086e-05
8.52397e-05
9.23941e-05
9.2369e-05
9.23903e-05
9.23643e-05
9.23896e-05
9.24015e-05
9.23834e-05
8.52083e-05
8.52297e-05
9.23974e-05
9.23948e-05
9.23921e-05
8.52383e-05
8.5205e-05
8.52364e-05
9.23823e-05
9.23664e-05
9.23777e-05
9.23606e-05
8.52145e-05
8.52216e-05
9.23904e-05
9.23645e-05
9.2386e-05
9.23588e-05
9.2383e-05
9.24e-05
9.23768e-05
8.52035e-05
8.52267e-05
9.23922e-05
9.23931e-05
9.23858e-05
8.523e-05
8.52011e-05
8.52407e-05
9.2378e-05
9.23607e-05
9.23715e-05
9.2354e-05
8.52016e-05
8.52177e-05
9.23857e-05
9.23588e-05
9.2381e-05
9.23523e-05
9.23765e-05
9.23979e-05
9.23704e-05
8.51949e-05
8.52308e-05
9.23858e-05
9.23905e-05
9.23794e-05
8.52282e-05
8.52039e-05
8.5232e-05
9.23718e-05
9.23543e-05
9.23646e-05
9.23472e-05
8.51844e-05
8.52115e-05
9.23816e-05
9.23524e-05
9.23755e-05
9.23451e-05
9.23707e-05
9.23949e-05
9.2364e-05
8.51919e-05
8.52233e-05
9.23798e-05
9.23877e-05
9.23731e-05
8.52213e-05
8.51973e-05
8.52239e-05
9.23657e-05
9.23481e-05
9.23627e-05
9.23447e-05
8.51783e-05
8.5202e-05
9.23766e-05
9.23458e-05
9.23734e-05
9.23421e-05
9.23647e-05
9.2394e-05
9.2361e-05
8.51835e-05
8.52165e-05
9.23737e-05
9.2388e-05
9.23703e-05
8.52064e-05
8.51864e-05
8.52209e-05
9.23682e-05
9.23499e-05
9.23792e-05
9.23619e-05
8.51656e-05
8.52099e-05
9.23787e-05
9.23472e-05
9.23889e-05
9.23578e-05
9.23659e-05
9.24095e-05
9.23777e-05
8.51782e-05
8.52123e-05
9.23753e-05
9.24031e-05
9.23874e-05
8.52026e-05
8.51846e-05
8.52319e-05
9.23901e-05
9.23738e-05
9.24301e-05
9.24148e-05
8.5174e-05
8.5225e-05
9.23994e-05
9.23688e-05
9.24407e-05
9.24103e-05
9.23899e-05
9.24594e-05
9.24289e-05
8.51796e-05
8.52243e-05
9.23986e-05
9.24531e-05
9.24407e-05
8.52181e-05
8.51914e-05
8.53753e-05
9.23947e-05
9.23795e-05
9.32942e-05
9.32793e-05
8.5186e-05
8.53743e-05
9.24053e-05
9.23741e-05
9.3303e-05
9.3277e-05
9.23927e-05
9.33203e-05
9.32933e-05
8.51868e-05
8.53744e-05
9.24052e-05
9.33159e-05
9.33038e-05
8.53722e-05
8.55181e-05
9.33396e-05
9.33256e-05
8.55178e-05
9.33474e-05
9.33236e-05
0.000130577
0.000130581
0.000130577
9.33387e-05
8.55151e-05
9.33481e-05
0.000127563
0.000127568
0.000127555
0.000127566
7.59471e-05
4.94933e-05
7.59373e-05
4.94935e-05
2.35481e-05
2.35489e-05
7.59531e-05
4.94903e-05
7.59437e-05
4.94904e-05
0.000127569
0.000127555
0.000127567
0.000127562
0.000127565
0.000127553
0.000127565
7.96941e-05
7.32946e-05
0.000107725
9.23748e-05
7.96922e-05
7.33031e-05
0.000107724
2.35459e-05
2.35467e-05
7.9692e-05
0.00010773
7.32969e-05
9.23652e-05
7.96911e-05
0.00010773
7.33054e-05
6.4411e-05
6.44117e-05
8.51995e-05
6.44158e-05
6.44165e-05
7.59452e-05
4.94926e-05
7.59351e-05
4.94929e-05
2.35478e-05
2.35486e-05
7.59511e-05
4.94896e-05
7.59414e-05
4.94899e-05
0.000127565
0.000127553
0.000127565
0.000127558
0.000127562
0.000127551
0.000127562
7.97074e-05
7.32961e-05
0.000107722
9.23787e-05
7.97049e-05
7.33057e-05
0.000107721
2.35456e-05
2.35465e-05
7.9707e-05
0.000107728
7.32953e-05
9.23675e-05
7.97037e-05
0.000107728
7.33086e-05
6.44107e-05
6.44116e-05
8.51969e-05
6.4416e-05
6.44171e-05
7.5946e-05
4.94924e-05
7.59349e-05
4.94929e-05
2.35476e-05
2.35485e-05
7.59521e-05
4.94894e-05
7.59413e-05
4.94898e-05
0.000127562
0.000127552
0.000127563
0.000127556
0.000127559
0.00012755
0.00012756
7.97238e-05
7.33029e-05
0.000107721
9.23815e-05
7.972e-05
7.33158e-05
0.000107721
2.35454e-05
2.35464e-05
7.97234e-05
0.000107726
7.33063e-05
9.23727e-05
7.97193e-05
0.000107726
7.33198e-05
6.4412e-05
6.4413e-05
8.52049e-05
6.44177e-05
6.44187e-05
7.59486e-05
4.94924e-05
7.59369e-05
4.94929e-05
2.35475e-05
2.35484e-05
7.5955e-05
4.94894e-05
7.59437e-05
4.94898e-05
0.00012756
0.000127551
0.000127561
0.000127553
0.000127557
0.000127548
0.000127558
7.97368e-05
7.33092e-05
0.000107719
9.23825e-05
7.97343e-05
7.33192e-05
0.000107719
2.35454e-05
2.35464e-05
7.97391e-05
0.000107726
7.33141e-05
9.23774e-05
7.97349e-05
0.000107726
7.33259e-05
6.44139e-05
6.44149e-05
8.52127e-05
6.442e-05
6.4421e-05
7.59524e-05
4.94926e-05
7.59403e-05
4.94931e-05
2.35475e-05
2.35484e-05
7.59588e-05
4.94895e-05
7.59473e-05
4.949e-05
0.000127558
0.000127549
0.000127559
0.000127551
0.000127557
0.000127547
0.000127557
7.97487e-05
7.33126e-05
0.000107717
9.23879e-05
7.97465e-05
7.33232e-05
0.000107721
2.35454e-05
2.35464e-05
7.97581e-05
0.000107725
7.33202e-05
9.23792e-05
7.97542e-05
0.000107725
7.33322e-05
6.44165e-05
6.44175e-05
8.5217e-05
6.44225e-05
6.44236e-05
7.59569e-05
4.94928e-05
7.59445e-05
4.94933e-05
2.35475e-05
2.35485e-05
7.5963e-05
4.94897e-05
7.59514e-05
4.94902e-05
0.000127558
0.000127548
0.000127559
0.000127551
0.000127557
0.000127546
0.000127557
7.97586e-05
7.33163e-05
0.000107721
9.23891e-05
7.97568e-05
7.33267e-05
0.000107725
2.35455e-05
2.35465e-05
7.97643e-05
0.000107722
7.33252e-05
9.23829e-05
7.9764e-05
0.000107726
7.33364e-05
6.44191e-05
6.44201e-05
8.52156e-05
6.44251e-05
6.44262e-05
7.59621e-05
4.9493e-05
7.59495e-05
4.94935e-05
2.35476e-05
2.35486e-05
7.5968e-05
4.94899e-05
7.59561e-05
4.94904e-05
0.000127558
0.000127547
0.000127559
0.00012755
0.000127558
0.000127545
0.000127557
7.97675e-05
7.33196e-05
0.000107725
9.23912e-05
7.97659e-05
7.33301e-05
0.000107725
2.35456e-05
2.35466e-05
7.97728e-05
0.000107727
7.33293e-05
9.23841e-05
7.97717e-05
0.000107731
7.33405e-05
6.44216e-05
6.44226e-05
8.5213e-05
6.44276e-05
6.44285e-05
7.59673e-05
4.94933e-05
7.59549e-05
4.94938e-05
2.35478e-05
2.35487e-05
7.59731e-05
4.94901e-05
7.59613e-05
4.94906e-05
0.00012756
0.000127547
0.000127559
0.00012755
0.000127559
0.000127545
0.000127559
7.97759e-05
7.33228e-05
0.000107721
9.23904e-05
7.97744e-05
7.33328e-05
0.000107725
2.35457e-05
2.35467e-05
7.97798e-05
0.00010773
7.33323e-05
9.23869e-05
7.97784e-05
0.00010773
7.33433e-05
6.4424e-05
6.44248e-05
8.52113e-05
6.44298e-05
6.44306e-05
7.59713e-05
4.94936e-05
7.59593e-05
4.94941e-05
2.35479e-05
2.35489e-05
7.59773e-05
4.94904e-05
7.59659e-05
4.94909e-05
0.00012756
0.000127546
0.000127561
0.000127551
0.00012756
0.000127547
0.00012756
7.97838e-05
7.33254e-05
0.000107725
9.23917e-05
7.97825e-05
7.33353e-05
0.000107725
2.35458e-05
2.35468e-05
7.97867e-05
0.000107724
7.33349e-05
9.23878e-05
7.9786e-05
0.000107728
7.33463e-05
6.44259e-05
6.44266e-05
8.52109e-05
6.44315e-05
6.44323e-05
7.59744e-05
4.94938e-05
7.59629e-05
4.94943e-05
2.3548e-05
2.3549e-05
7.59801e-05
4.94906e-05
7.59692e-05
4.94911e-05
0.000127561
0.000127549
0.000127561
0.000127555
0.000127562
0.000127549
0.00012756
7.97916e-05
7.33279e-05
0.000107726
9.23951e-05
7.97903e-05
7.33375e-05
0.000107725
2.35459e-05
2.35469e-05
7.97923e-05
0.000107733
7.33368e-05
9.23937e-05
7.97921e-05
0.000107736
7.33483e-05
6.44273e-05
6.44281e-05
8.52117e-05
6.44326e-05
6.44336e-05
7.59765e-05
4.94939e-05
7.59654e-05
4.94944e-05
2.35481e-05
2.35491e-05
7.59822e-05
4.94908e-05
7.59715e-05
4.94913e-05
0.000127564
0.000127551
0.000127562
0.000127553
0.000127562
0.000127551
0.00012756
7.97984e-05
7.33299e-05
0.00010772
9.23994e-05
7.97976e-05
7.33389e-05
0.000107719
2.3546e-05
2.3547e-05
7.97956e-05
0.000107729
7.33373e-05
9.23931e-05
7.97959e-05
0.000107731
7.33495e-05
6.4428e-05
6.44289e-05
8.52147e-05
6.44331e-05
6.4434e-05
7.59778e-05
4.94941e-05
7.5967e-05
4.94946e-05
2.35482e-05
2.35492e-05
7.59837e-05
4.9491e-05
7.59733e-05
4.94914e-05
0.000127563
0.000127552
0.000127562
0.000127554
0.000127562
0.000127551
0.000127561
7.98026e-05
7.33308e-05
0.000107718
9.23997e-05
7.98028e-05
7.33392e-05
0.000107722
2.3546e-05
2.3547e-05
7.97992e-05
0.00010773
7.33376e-05
9.23937e-05
7.97992e-05
0.000107734
7.33499e-05
6.44283e-05
6.4429e-05
8.52195e-05
6.44334e-05
6.44341e-05
7.59784e-05
4.94942e-05
7.59679e-05
4.94946e-05
2.35483e-05
2.35492e-05
7.59845e-05
4.94911e-05
7.59743e-05
4.94915e-05
0.000127564
0.000127552
0.000127562
0.000127556
0.000127563
0.000127552
0.00012756
7.98046e-05
7.33311e-05
0.000107727
9.24033e-05
7.98056e-05
7.33393e-05
0.000107734
2.35461e-05
2.35471e-05
7.98022e-05
0.000107732
7.3338e-05
9.23959e-05
7.98027e-05
0.000107734
7.33502e-05
6.44284e-05
6.44291e-05
8.5223e-05
6.44333e-05
6.44342e-05
7.59785e-05
4.94943e-05
7.59681e-05
4.94947e-05
2.35484e-05
2.35493e-05
7.59847e-05
4.94911e-05
7.59748e-05
4.94915e-05
0.000127563
0.000127552
0.000127562
0.000127558
0.000127561
0.00012755
0.00012756
7.98067e-05
7.33311e-05
0.000107729
9.24027e-05
7.98072e-05
7.33397e-05
0.000107732
2.35461e-05
2.35471e-05
7.98037e-05
0.000107734
7.33382e-05
9.2399e-05
7.98049e-05
0.000107739
7.33502e-05
6.4428e-05
6.44291e-05
8.52261e-05
6.44328e-05
6.4434e-05
7.59783e-05
4.94943e-05
7.59681e-05
4.94947e-05
2.35484e-05
2.35493e-05
7.59846e-05
4.94911e-05
7.59748e-05
4.94915e-05
0.000127561
0.000127553
0.000127561
0.000127557
0.00012756
0.000127553
0.000127558
7.98089e-05
7.33317e-05
0.000107729
9.2405e-05
7.981e-05
7.33401e-05
0.000107733
2.35461e-05
2.35471e-05
7.98034e-05
0.000107739
7.33385e-05
9.24019e-05
7.98055e-05
0.000107742
7.33504e-05
6.44277e-05
6.44289e-05
8.52277e-05
6.44326e-05
6.44337e-05
7.59777e-05
4.94943e-05
7.59678e-05
4.94947e-05
2.35484e-05
2.35493e-05
7.59841e-05
4.94911e-05
7.59745e-05
4.94915e-05
0.000127563
0.000127556
0.00012756
0.000127555
0.000127559
0.000127548
0.000127549
7.98094e-05
7.33316e-05
0.000107736
9.24052e-05
7.98111e-05
7.33394e-05
0.000107741
2.35462e-05
2.35472e-05
7.98033e-05
0.000107741
7.33383e-05
9.24042e-05
7.98051e-05
0.000107744
7.33498e-05
6.44275e-05
6.44286e-05
8.5228e-05
6.44323e-05
6.44334e-05
7.59769e-05
4.94942e-05
7.59671e-05
4.94947e-05
2.35484e-05
2.35494e-05
7.59835e-05
4.94911e-05
7.59739e-05
4.94915e-05
0.000127557
0.000127548
0.000127549
0.000127545
0.000127541
0.000127539
0.000127541
7.98093e-05
7.33311e-05
0.000107734
9.241e-05
7.98112e-05
7.3339e-05
0.000107734
2.35462e-05
2.35472e-05
7.98021e-05
0.00010774
7.33379e-05
9.24024e-05
7.98046e-05
0.000107741
7.33488e-05
6.44274e-05
6.44284e-05
8.5229e-05
6.44323e-05
6.44333e-05
7.5976e-05
4.94942e-05
7.59663e-05
4.94947e-05
2.35484e-05
2.35494e-05
7.59828e-05
4.9491e-05
7.59734e-05
4.94912e-05
0.00012754
0.00012754
0.000127542
0.000127537
0.000127533
0.000127534
0.000127534
7.98088e-05
7.333e-05
0.000107733
9.24015e-05
7.98111e-05
7.33377e-05
0.000107736
2.35462e-05
2.35472e-05
7.98014e-05
0.000107741
7.33376e-05
9.24019e-05
7.98037e-05
0.000107744
7.33469e-05
6.44276e-05
6.44284e-05
8.52275e-05
6.44323e-05
6.44331e-05
7.59751e-05
4.94942e-05
7.59656e-05
4.94947e-05
2.35484e-05
2.35494e-05
7.5982e-05
4.94908e-05
7.59729e-05
4.94913e-05
0.000127534
0.000127534
0.000127534
0.000127532
0.000127531
0.000127529
0.000127529
7.98076e-05
7.33284e-05
0.000107732
9.24025e-05
7.98102e-05
7.33361e-05
0.000107734
2.35462e-05
2.35472e-05
7.97995e-05
0.000107742
7.33373e-05
9.23939e-05
7.98022e-05
0.000107744
7.33444e-05
6.44279e-05
6.44287e-05
8.52255e-05
6.44326e-05
6.44333e-05
7.59747e-05
4.94942e-05
7.59653e-05
4.94947e-05
2.35484e-05
2.35495e-05
7.59817e-05
4.94908e-05
7.59727e-05
4.94914e-05
0.000127531
0.000127529
0.000127529
0.000127525
0.000127527
0.000127523
0.000127524
7.98064e-05
7.33277e-05
0.00010773
9.24005e-05
7.98088e-05
7.33348e-05
0.000107732
2.35462e-05
2.35473e-05
7.97983e-05
0.000107738
7.33362e-05
9.23936e-05
7.98003e-05
0.000107739
7.33431e-05
6.44291e-05
6.44298e-05
8.52245e-05
6.44352e-05
6.44352e-05
7.59755e-05
4.94943e-05
7.59659e-05
4.94949e-05
2.35484e-05
2.35496e-05
7.59822e-05
4.94909e-05
7.5973e-05
4.94916e-05
0.000127528
0.000127523
0.000127524
0.000127527
0.000127525
0.000127521
0.000127519
7.98055e-05
7.33263e-05
0.000107726
9.24014e-05
7.98077e-05
7.33331e-05
0.000107726
2.35462e-05
2.35475e-05
7.97977e-05
0.00010773
7.33346e-05
9.23945e-05
7.98e-05
0.00010773
7.33408e-05
6.44358e-05
6.44352e-05
8.5225e-05
6.44408e-05
6.44407e-05
7.59781e-05
4.94944e-05
7.5968e-05
4.94953e-05
2.35485e-05
2.35499e-05
7.59845e-05
4.94911e-05
7.59751e-05
4.9492e-05
0.000127527
0.000127523
0.00012752
0.000127525
0.000127523
0.000127518
0.000127517
7.98055e-05
7.33243e-05
0.00010772
9.24018e-05
7.98067e-05
7.33307e-05
0.00010772
2.35464e-05
2.35478e-05
7.97957e-05
0.000107724
7.33306e-05
9.23952e-05
7.97979e-05
0.000107725
7.33357e-05
6.44425e-05
6.44427e-05
8.52219e-05
6.44458e-05
6.4446e-05
7.59859e-05
4.94947e-05
7.5974e-05
4.94959e-05
2.35485e-05
2.35503e-05
7.59906e-05
4.94914e-05
7.59802e-05
4.94926e-05
0.000127522
0.000127516
0.000127515
0.000127509
0.000127507
0.0001275
0.0001275
7.98086e-05
7.33225e-05
0.000107715
9.24012e-05
7.98099e-05
7.33287e-05
0.000107715
2.35464e-05
2.35481e-05
7.9798e-05
0.00010772
7.33282e-05
9.23945e-05
7.97999e-05
0.00010772
7.33343e-05
6.44482e-05
6.44485e-05
8.52242e-05
6.44505e-05
6.4451e-05
7.60001e-05
4.9495e-05
7.59872e-05
4.94968e-05
2.35484e-05
2.35507e-05
7.60041e-05
4.94918e-05
7.59917e-05
4.94935e-05
0.000127504
0.000127496
0.000127497
0.000127488
0.000127488
0.000127478
0.000127481
7.9811e-05
7.33263e-05
0.000107709
9.23995e-05
7.98139e-05
7.33317e-05
0.000107708
2.35462e-05
2.35485e-05
7.98006e-05
0.000107713
7.33319e-05
9.23922e-05
7.98032e-05
0.000107712
7.33369e-05
6.44587e-05
6.44593e-05
8.52227e-05
6.44577e-05
6.44584e-05
7.60106e-05
4.94955e-05
7.59992e-05
4.94982e-05
2.35481e-05
2.35513e-05
7.60161e-05
4.94922e-05
7.60046e-05
4.9495e-05
0.000127486
0.000127476
0.000127479
0.000127466
0.000127466
0.000127458
0.00012746
7.98122e-05
7.33381e-05
0.000107701
9.2397e-05
7.9816e-05
7.33388e-05
0.000107699
2.35459e-05
2.35491e-05
7.98038e-05
0.000107703
7.33429e-05
9.23895e-05
7.98074e-05
0.000107702
7.33431e-05
6.44653e-05
6.44664e-05
8.52123e-05
6.44512e-05
6.44526e-05
7.60163e-05
4.94961e-05
7.60102e-05
4.95004e-05
2.35475e-05
2.35521e-05
7.60257e-05
4.94928e-05
7.60167e-05
4.9497e-05
0.000127462
0.000127453
0.000127454
0.000127472
0.000127477
0.000127465
0.000127467
7.9807e-05
7.33561e-05
0.00010769
9.23938e-05
7.98138e-05
7.33449e-05
0.000107688
2.35453e-05
2.355e-05
7.97971e-05
0.000107695
7.33602e-05
9.23871e-05
7.98042e-05
0.000107694
7.33471e-05
6.44547e-05
6.44562e-05
8.52049e-05
6.44234e-05
6.44251e-05
7.60104e-05
4.94954e-05
7.60048e-05
4.95018e-05
2.35462e-05
2.3553e-05
7.60217e-05
4.94923e-05
7.6015e-05
4.94987e-05
0.000127482
0.000127471
0.000127472
0.000127489
0.000127494
0.000127483
0.000127485
7.97979e-05
7.33685e-05
0.000107693
9.23993e-05
7.98106e-05
7.33242e-05
0.000107698
2.35441e-05
2.3551e-05
7.97879e-05
0.000107698
7.33684e-05
9.23931e-05
7.98006e-05
0.000107702
7.33225e-05
6.44255e-05
6.44271e-05
8.51988e-05
6.43682e-05
6.43696e-05
7.5987e-05
4.94914e-05
7.59867e-05
4.95022e-05
2.35438e-05
2.35537e-05
7.59979e-05
4.94884e-05
7.59981e-05
4.94991e-05
0.000127502
0.000127493
0.000127494
0.000127527
0.000127525
0.000127517
0.000127519
7.9785e-05
7.3355e-05
0.000107719
9.2427e-05
7.98121e-05
7.32556e-05
0.000107722
2.35419e-05
2.35519e-05
7.97752e-05
0.000107722
7.33517e-05
9.24206e-05
7.98022e-05
0.000107724
7.32516e-05
6.43693e-05
6.43706e-05
8.52011e-05
6.42691e-05
6.42703e-05
7.59906e-05
4.94858e-05
7.59402e-05
4.95254e-05
2.35417e-05
2.35643e-05
7.59984e-05
4.94823e-05
7.595e-05
4.95225e-05
0.000127551
0.000127545
0.000127545
0.000128274
0.000128274
0.000128273
0.000128272
7.97449e-05
7.33144e-05
0.000107824
9.25803e-05
7.98176e-05
7.31464e-05
0.000107674
2.35398e-05
2.35626e-05
7.9735e-05
0.000107828
7.331e-05
9.25743e-05
7.98077e-05
0.000107681
7.31425e-05
6.42679e-05
6.42691e-05
8.52551e-05
6.41029e-05
6.41055e-05
7.7559e-05
5.33034e-05
7.60128e-05
9.27449e-05
2.64718e-05
4.26541e-05
7.75639e-05
5.32996e-05
7.60182e-05
9.27395e-05
0.000175271
0.000154096
0.000154105
0.000126986
0.000174658
0.000152152
0.000152159
7.96389e-05
7.38168e-05
0.000110183
9.41089e-05
7.95947e-05
8.00928e-05
0.000112406
2.64705e-05
4.26556e-05
7.96287e-05
0.000110188
7.38131e-05
9.41052e-05
7.95847e-05
0.000112412
8.00888e-05
6.47283e-05
6.47277e-05
8.59432e-05
6.82508e-05
6.82553e-05
2.35498e-05
2.35484e-05
6.44126e-05
6.44106e-05
4.94938e-05
7.59475e-05
4.94942e-05
4.94939e-05
7.59491e-05
7.33058e-05
0.000107722
7.96972e-05
9.23392e-05
7.33117e-05
0.000107715
7.32971e-05
7.96998e-05
2.35491e-05
2.35483e-05
8.51469e-05
6.44164e-05
6.44062e-05
6.44082e-05
6.43956e-05
2.35495e-05
2.35487e-05
4.94908e-05
7.59537e-05
7.33107e-05
0.000107722
7.97032e-05
4.94866e-05
7.59491e-05
0.000107716
7.32998e-05
7.96999e-05
7.96776e-05
9.23731e-05
7.33042e-05
0.000107726
7.32872e-05
0.000107727
7.96913e-05
7.59359e-05
4.94928e-05
4.94925e-05
7.59493e-05
7.96796e-05
9.23565e-05
0.000107725
7.331e-05
0.000107725
7.32918e-05
7.96926e-05
7.59348e-05
4.94896e-05
4.94894e-05
7.59481e-05
2.3547e-05
6.43983e-05
6.44097e-05
2.35487e-05
0.000107731
7.33066e-05
7.96918e-05
9.23711e-05
0.000107731
7.33075e-05
7.32919e-05
7.96996e-05
4.94893e-05
7.59429e-05
4.949e-05
4.94897e-05
7.59486e-05
8.51556e-05
6.44162e-05
6.4417e-05
6.4408e-05
6.44088e-05
2.35485e-05
2.35478e-05
2.3548e-05
2.35472e-05
2.35489e-05
2.35496e-05
2.35474e-05
2.35481e-05
6.44057e-05
6.44037e-05
8.51837e-05
6.44123e-05
6.44108e-05
2.35494e-05
2.35486e-05
2.3548e-05
2.35472e-05
8.51485e-05
6.44124e-05
6.44114e-05
6.44056e-05
6.44042e-05
7.5948e-05
4.94936e-05
7.59343e-05
4.94938e-05
7.97002e-05
7.32935e-05
0.000107721
9.23511e-05
7.9695e-05
7.33063e-05
0.000107722
7.97027e-05
7.33003e-05
0.000107715
9.23432e-05
7.96976e-05
7.33084e-05
0.000107714
7.59322e-05
4.94931e-05
4.94929e-05
7.59455e-05
7.5933e-05
4.94935e-05
4.94933e-05
7.59469e-05
7.97006e-05
9.2353e-05
7.33036e-05
0.000107721
7.32916e-05
0.000107721
7.97074e-05
7.9703e-05
9.23441e-05
7.33051e-05
0.000107712
7.32935e-05
0.000107712
7.97099e-05
6.44093e-05
6.43994e-05
8.51874e-05
6.44153e-05
6.44077e-05
2.35485e-05
2.35493e-05
2.35487e-05
2.35479e-05
8.51487e-05
6.44149e-05
6.44078e-05
6.44084e-05
6.44005e-05
2.35492e-05
2.35483e-05
7.97064e-05
7.33007e-05
0.000107723
9.23645e-05
7.97008e-05
7.33102e-05
0.000107723
7.59474e-05
4.94861e-05
7.59352e-05
4.94863e-05
7.97031e-05
0.000107716
7.32891e-05
9.23398e-05
7.96977e-05
0.000107716
7.3299e-05
7.59385e-05
4.94901e-05
4.94899e-05
7.59514e-05
7.97063e-05
9.23647e-05
7.33081e-05
0.000107722
7.32952e-05
0.000107723
7.97126e-05
7.59331e-05
4.9486e-05
4.94857e-05
7.59461e-05
7.97031e-05
9.23409e-05
0.000107716
7.3297e-05
0.000107715
7.32836e-05
7.97096e-05
7.59474e-05
4.94923e-05
7.59342e-05
4.94925e-05
7.96973e-05
0.000107725
7.32974e-05
9.23616e-05
7.96913e-05
0.000107725
7.33085e-05
7.59463e-05
4.94891e-05
7.59332e-05
4.94893e-05
7.96946e-05
9.23758e-05
7.33054e-05
0.000107722
7.3294e-05
0.000107722
7.97026e-05
7.59325e-05
4.94923e-05
4.9492e-05
7.5946e-05
7.96976e-05
9.23635e-05
0.000107724
7.33058e-05
0.000107724
7.32939e-05
7.97039e-05
7.59316e-05
4.9489e-05
4.94888e-05
7.5945e-05
6.43905e-05
6.44029e-05
8.51709e-05
6.43981e-05
6.441e-05
2.35478e-05
2.35485e-05
2.35466e-05
2.35457e-05
8.51366e-05
6.43991e-05
6.44106e-05
6.43908e-05
6.44034e-05
2.35483e-05
2.35476e-05
7.97024e-05
0.00010773
7.32937e-05
9.23721e-05
7.96972e-05
0.00010773
7.33042e-05
7.59418e-05
4.94888e-05
7.5928e-05
4.9489e-05
7.5947e-05
4.94895e-05
7.5935e-05
4.94897e-05
7.96923e-05
9.23649e-05
0.000107729
7.3304e-05
0.00010773
7.32914e-05
7.97014e-05
7.97024e-05
9.23708e-05
0.000107728
7.33034e-05
0.000107728
7.32906e-05
7.97093e-05
7.59268e-05
4.94887e-05
4.94884e-05
7.59406e-05
7.59332e-05
4.94894e-05
4.94891e-05
7.59459e-05
2.35476e-05
2.35483e-05
2.3547e-05
2.35478e-05
8.51654e-05
6.44157e-05
6.44165e-05
6.44091e-05
6.44097e-05
2.35482e-05
2.35474e-05
2.35477e-05
2.35469e-05
2.35485e-05
2.35493e-05
2.3547e-05
2.35479e-05
6.44059e-05
6.4405e-05
8.51973e-05
6.44131e-05
6.44124e-05
2.35492e-05
2.35484e-05
2.35478e-05
2.35469e-05
8.51654e-05
6.44142e-05
6.44138e-05
6.44068e-05
6.4406e-05
7.59461e-05
4.9493e-05
7.5932e-05
4.94932e-05
7.97162e-05
7.32973e-05
0.000107721
9.23563e-05
7.97086e-05
7.33118e-05
0.000107721
7.97184e-05
7.32985e-05
0.000107712
9.23461e-05
7.97111e-05
7.33121e-05
0.000107713
7.59305e-05
4.94929e-05
4.94924e-05
7.59449e-05
7.59313e-05
4.9493e-05
4.94927e-05
7.59461e-05
7.97171e-05
9.23567e-05
7.33196e-05
0.00010772
7.33039e-05
0.000107719
7.97234e-05
7.97191e-05
9.23466e-05
7.33086e-05
0.000107713
7.32969e-05
0.000107712
7.97247e-05
6.44082e-05
6.44006e-05
8.52036e-05
6.44149e-05
6.44082e-05
2.35482e-05
2.35491e-05
2.35485e-05
2.35477e-05
8.51653e-05
6.44152e-05
6.4409e-05
6.44082e-05
6.44012e-05
2.3549e-05
2.35481e-05
7.97212e-05
7.33002e-05
0.000107722
9.23675e-05
7.97134e-05
7.33118e-05
0.000107722
7.59455e-05
4.94855e-05
7.59321e-05
4.94858e-05
7.97183e-05
0.000107716
7.3289e-05
9.23438e-05
7.97105e-05
0.000107716
7.33006e-05
7.59367e-05
4.94898e-05
4.94894e-05
7.59508e-05
7.97221e-05
9.23682e-05
7.33156e-05
0.000107721
7.33018e-05
0.000107722
7.97289e-05
7.59315e-05
4.94857e-05
4.94853e-05
7.59456e-05
7.97193e-05
9.23439e-05
0.000107714
7.33073e-05
0.000107714
7.3292e-05
7.97266e-05
7.59455e-05
4.94917e-05
7.59312e-05
4.94921e-05
7.97112e-05
0.000107724
7.32976e-05
9.23645e-05
7.97044e-05
0.000107724
7.33097e-05
7.59445e-05
4.94885e-05
7.59304e-05
4.94888e-05
7.9708e-05
9.23797e-05
7.33115e-05
0.00010772
7.32969e-05
0.000107721
7.97165e-05
7.5931e-05
4.9492e-05
4.94916e-05
7.59457e-05
7.97119e-05
9.23641e-05
0.000107723
7.33137e-05
0.000107723
7.33e-05
7.97188e-05
7.59302e-05
4.94887e-05
4.94883e-05
7.59449e-05
6.43924e-05
6.44041e-05
8.5192e-05
6.4401e-05
6.44115e-05
2.35474e-05
2.35482e-05
2.35464e-05
2.35455e-05
8.51528e-05
6.44029e-05
6.44129e-05
6.43944e-05
6.44052e-05
2.35481e-05
2.35473e-05
7.97175e-05
0.000107727
7.32972e-05
9.23728e-05
7.97102e-05
0.000107727
7.33141e-05
7.594e-05
4.94881e-05
7.59255e-05
4.94884e-05
7.59453e-05
4.94888e-05
7.59321e-05
4.94892e-05
7.97075e-05
9.23689e-05
0.000107726
7.3315e-05
0.000107726
7.32994e-05
7.9716e-05
7.97182e-05
9.23735e-05
0.000107725
7.33155e-05
0.000107725
7.33018e-05
7.97248e-05
7.59253e-05
4.94883e-05
4.94879e-05
7.59401e-05
7.59317e-05
4.94891e-05
4.94887e-05
7.59457e-05
2.35473e-05
2.35481e-05
2.35468e-05
2.35476e-05
8.51702e-05
6.44168e-05
6.44179e-05
6.44096e-05
6.44106e-05
2.3548e-05
2.35472e-05
2.35475e-05
2.35467e-05
2.35483e-05
2.35491e-05
2.35469e-05
2.35477e-05
6.44079e-05
6.44075e-05
8.51983e-05
6.44154e-05
6.44151e-05
2.35491e-05
2.35482e-05
2.35477e-05
2.35468e-05
8.51693e-05
6.44168e-05
6.44165e-05
6.44091e-05
6.44088e-05
7.59466e-05
4.94925e-05
7.59314e-05
4.94928e-05
7.97325e-05
7.33124e-05
0.000107719
9.236e-05
7.97248e-05
7.33257e-05
0.000107719
7.97321e-05
7.33021e-05
0.000107713
9.23485e-05
7.97256e-05
7.33169e-05