/*--------------------------------*- C++ -*----------------------------------*\
| =========                 |                                                 |
| \\      /  F ield         | OpenFOAM: The Open Source CFD Toolbox           |
|  \\    /   O peration     | Version:  v1912                                 |
|   \\  /    A nd           | Website:  www.openfoam.com                      |
|    \\/     M anipulation  |                                                 |
\*---------------------------------------------------------------------------*/
FoamFile
{
    version     2.0;
    format      ascii;
    class       volScalarField;
    location    "120";
    object      p;
}
// * * * * * * * * * * * * * * * * * * * * * * * * * * * * * * * * * * * * * //

dimensions      [0 2 -2 0 0 0 0];


internalField   nonuniform List<scalar> 
57062
(
0.00103613
0.00103606
0.00103606
0.00103815
0.0010003
0.00100024
0.00100024
0.00100233
0.00096448
0.000964418
0.000964418
0.000966505
0.000928661
0.0009286
0.000928599
0.000930686
0.000892846
0.000892785
0.000892785
0.000894872
0.000857033
0.000856971
0.000856971
0.000859058
0.00082122
0.000821158
0.000821159
0.000823246
0.000785407
0.000785346
0.000785346
0.000787433
0.000749594
0.000749533
0.000749533
0.00075162
0.000713781
0.000713719
0.000713719
0.000715806
0.000677967
0.000677906
0.000677906
0.000679993
0.000642154
0.000642092
0.000642093
0.000644179
0.000606341
0.000606279
0.000606279
0.000608366
0.000570527
0.000570466
0.000570465
0.000572552
0.000534712
0.000534651
0.00053465
0.000536737
0.000498897
0.000498836
0.000498836
0.000500923
0.000463082
0.00046302
0.00046302
0.000465107
0.000427265
0.000427204
0.000427204
0.00042929
0.000391449
0.000391387
0.000391387
0.000393473
0.00035563
0.000355568
0.000355569
0.000357654
0.000319812
0.00031975
0.00031975
0.000321834
0.000283994
0.000283931
0.000283931
0.000286014
0.000248169
0.00024811
0.00024811
0.00025019
0.000212341
0.000212282
0.000212282
0.000214357
0.000176507
0.000176451
0.000176451
0.000178517
0.000140667
0.000140616
0.000140615
0.00014267
0.000104813
0.000104771
0.00010477
0.000106807
6.89432e-05
6.89066e-05
6.89049e-05
7.09159e-05
3.38272e-05
3.34695e-05
3.34659e-05
3.52797e-05
2.82202e-06
-6.50795e-07
-6.48665e-07
1.45304e-06
0.00104294
0.00104502
0.00104502
0.00104294
0.00104501
0.00104502
0.00104502
0.00104502
0.00104294
0.00104501
0.00104502
0.00104294
0.00103815
0.00100712
0.00103606
0.00103606
0.00100919
0.00100919
0.00103815
0.00100712
0.00103606
0.00103606
0.00100919
0.00100919
0.00103606
0.00100919
0.00100919
0.00103815
0.00100712
0.00103606
0.00100919
0.00100919
0.00100712
0.00100233
0.000971298
0.00100024
0.00100024
0.000973373
0.000973373
0.00100233
0.000971298
0.00100024
0.00100024
0.000973372
0.000973373
0.00100024
0.000973373
0.000973373
0.00100232
0.000971297
0.00100024
0.000973372
0.000973373
0.000971297
0.000966505
0.000935479
0.000964418
0.000964418
0.000937554
0.000937554
0.000966505
0.000935479
0.000964418
0.000964418
0.000937554
0.000937554
0.000964418
0.000937554
0.000937554
0.000966505
0.000935479
0.000964418
0.000937554
0.000937553
0.000935479
0.000930687
0.000899664
0.0009286
0.0009286
0.000901738
0.000901738
0.000930686
0.000899664
0.0009286
0.0009286
0.000901738
0.000901738
0.0009286
0.000901738
0.000901738
0.000930686
0.000899664
0.000928599
0.000901738
0.000901738
0.000899664
0.000894871
0.000863849
0.000892785
0.000892784
0.000865924
0.000865924
0.000894871
0.00086385
0.000892784
0.000892785
0.000865924
0.000865924
0.000892785
0.000865924
0.000865924
0.000894872
0.00086385
0.000892785
0.000865925
0.000865924
0.00086385
0.000859058
0.000828037
0.000856971
0.000856971
0.000830112
0.000830112
0.000859057
0.000828037
0.000856971
0.000856971
0.000830112
0.000830112
0.000856971
0.000830112
0.000830112
0.000859058
0.000828037
0.000856972
0.000830112
0.000830112
0.000828037
0.000823245
0.000792224
0.000821159
0.000821158
0.000794299
0.000794299
0.000823245
0.000792225
0.000821158
0.000821159
0.000794299
0.000794299
0.000821159
0.000794299
0.000794299
0.000823245
0.000792224
0.000821159
0.000794299
0.000794299
0.000792224
0.000787432
0.000756412
0.000785346
0.000785346
0.000758486
0.000758486
0.000787432
0.000756412
0.000785346
0.000785346
0.000758486
0.000758486
0.000785346
0.000758486
0.000758486
0.000787432
0.000756412
0.000785346
0.000758486
0.000758486
0.000756412
0.00075162
0.000720598
0.000749533
0.000749533
0.000722673
0.000722673
0.00075162
0.000720599
0.000749533
0.000749533
0.000722673
0.000722673
0.000749533
0.000722673
0.000722673
0.00075162
0.000720598
0.000749533
0.000722673
0.000722673
0.000720598
0.000715806
0.000684785
0.000713719
0.000713719
0.000686859
0.000686859
0.000715806
0.000684785
0.000713719
0.000713719
0.000686859
0.000686859
0.00071372
0.000686859
0.000686859
0.000715806
0.000684785
0.000713719
0.000686859
0.000686859
0.000684785
0.000679993
0.000648972
0.000677906
0.000677906
0.000651046
0.000651046
0.000679993
0.000648972
0.000677906
0.000677906
0.000651046
0.000651046
0.000677906
0.000651046
0.000651046
0.000679993
0.000648972
0.000677906
0.000651046
0.000651046
0.000648972
0.000644179
0.000613158
0.000642093
0.000642092
0.000615232
0.000615232
0.000644179
0.000613158
0.000642093
0.000642093
0.000615232
0.000615232
0.000642093
0.000615232
0.000615232
0.000644179
0.000613158
0.000642093
0.000615232
0.000615232
0.000613158
0.000608366
0.000577344
0.000606279
0.000606279
0.000579419
0.000579419
0.000608365
0.000577345
0.000606279
0.000606279
0.000579419
0.000579419
0.000606279
0.000579419
0.000579419
0.000608366
0.000577344
0.000606279
0.000579419
0.000579419
0.000577345
0.000572552
0.000541529
0.000570465
0.000570465
0.000543604
0.000543604
0.000572552
0.00054153
0.000570465
0.000570465
0.000543604
0.000543604
0.000570466
0.000543604
0.000543604
0.000572552
0.000541529
0.000570465
0.000543604
0.000543604
0.00054153
0.000536737
0.000505715
0.00053465
0.00053465
0.000507789
0.000507789
0.000536737
0.000505715
0.00053465
0.00053465
0.000507789
0.000507789
0.000534651
0.000507789
0.000507789
0.000536737
0.000505715
0.00053465
0.000507789
0.000507789
0.000505715
0.000500922
0.0004699
0.000498836
0.000498836
0.000471974
0.000471974
0.000500922
0.0004699
0.000498835
0.000498836
0.000471974
0.000471974
0.000498836
0.000471974
0.000471974
0.000500922
0.0004699
0.000498836
0.000471974
0.000471974
0.0004699
0.000465107
0.000434083
0.00046302
0.00046302
0.000436158
0.000436158
0.000465107
0.000434084
0.00046302
0.00046302
0.000436158
0.000436158
0.00046302
0.000436158
0.000436158
0.000465107
0.000434083
0.00046302
0.000436158
0.000436158
0.000434083
0.00042929
0.000398267
0.000427204
0.000427204
0.000400341
0.000400341
0.00042929
0.000398267
0.000427204
0.000427204
0.000400341
0.000400341
0.000427204
0.000400341
0.000400341
0.00042929
0.000398267
0.000427204
0.000400341
0.000400341
0.000398267
0.000393473
0.000362449
0.000391387
0.000391387
0.000364523
0.000364523
0.000393473
0.000362449
0.000391387
0.000391387
0.000364523
0.000364523
0.000391387
0.000364523
0.000364523
0.000393473
0.000362449
0.000391387
0.000364523
0.000364523
0.000362449
0.000357654
0.00032663
0.000355568
0.000355568
0.000328704
0.000328704
0.000357654
0.000326631
0.000355568
0.000355568
0.000328704
0.000328704
0.000355569
0.000328704
0.000328704
0.000357654
0.00032663
0.000355569
0.000328704
0.000328704
0.00032663
0.000321834
0.000290812
0.00031975
0.000319749
0.000292885
0.000292885
0.000321834
0.000290813
0.000319749
0.00031975
0.000292885
0.000292885
0.00031975
0.000292885
0.000292885
0.000321834
0.000290812
0.00031975
0.000292885
0.000292885
0.000290813
0.000286014
0.000254993
0.000283931
0.000283931
0.000257064
0.000257064
0.000286013
0.000254993
0.000283931
0.000283931
0.000257064
0.000257064
0.000283931
0.000257064
0.000257064
0.000286014
0.000254993
0.000283931
0.000257064
0.000257064
0.000254993
0.00025019
0.000219167
0.00024811
0.00024811
0.000221237
0.000221236
0.000250189
0.000219167
0.00024811
0.00024811
0.000221236
0.000221236
0.00024811
0.000221236
0.000221236
0.00025019
0.000219167
0.00024811
0.000221236
0.000221236
0.000219167
0.000214357
0.000183336
0.000212283
0.000212282
0.000185403
0.000185402
0.000214357
0.000183336
0.000212282
0.000212283
0.000185403
0.000185403
0.000212282
0.000185402
0.000185402
0.000214357
0.000183336
0.000212282
0.000185403
0.000185402
0.000183336
0.000178517
0.000147503
0.000176451
0.000176451
0.000149564
0.000149564
0.000178517
0.000147503
0.000176451
0.000176451
0.000149564
0.000149564
0.000176451
0.000149564
0.000149564
0.000178517
0.000147503
0.000176451
0.000149564
0.000149564
0.000147503
0.00014267
0.000111661
0.000140616
0.000140616
0.000113714
0.000113714
0.00014267
0.000111661
0.000140615
0.000140615
0.000113714
0.000113714
0.000140616
0.000113714
0.000113714
0.00014267
0.00011166
0.000140615
0.000113714
0.000113714
0.000111661
0.000106807
7.57986e-05
0.000104771
0.000104771
7.78436e-05
7.7845e-05
0.000106807
7.57998e-05
0.00010477
0.00010477
7.78439e-05
7.78427e-05
0.000104771
7.78446e-05
7.78439e-05
0.000106806
7.57976e-05
0.000104771
7.78426e-05
7.78428e-05
7.57983e-05
7.09168e-05
4.00835e-05
6.89066e-05
6.89071e-05
4.20983e-05
4.20991e-05
7.0917e-05
4.00851e-05
6.89058e-05
6.89048e-05
4.20963e-05
4.20947e-05
6.89059e-05
4.20979e-05
4.20946e-05
7.0916e-05
4.00807e-05
6.89053e-05
4.20944e-05
4.20939e-05
4.00807e-05
3.52834e-05
5.93896e-06
3.34712e-05
3.34722e-05
8.71522e-06
8.71225e-06
3.52843e-05
5.93685e-06
3.34686e-05
3.34668e-05
8.71233e-06
8.71127e-06
3.34657e-05
8.71055e-06
8.70933e-06
3.52799e-05
5.93618e-06
3.34654e-05
8.71168e-06
8.70923e-06
5.93472e-06
1.45572e-06
-6.47011e-07
-6.53865e-07
1.45442e-06
-6.52952e-07
-6.52851e-07
2.82072e-06
2.81985e-06
2.82062e-06
-6.49776e-07
1.45428e-06
-6.53839e-07
0.00104508
0.00104508
0.00104509
0.00104508
0.00102492
0.00103831
0.00103831
0.00102491
0.00103831
0.00102491
0.00102492
0.00103831
0.00103831
0.00102491
0.00103612
0.00103613
0.00103612
0.00100926
0.00100925
0.00100925
0.00100925
0.00102498
0.00103827
0.00103608
0.00102711
0.00103825
0.00102495
0.00102712
0.00103831
0.00102491
0.00102498
0.00103608
0.00103827
0.00102711
0.00103825
0.00102712
0.00102495
0.00103832
0.00103832
0.00102503
0.00102491
0.00102491
0.000989094
0.00100249
0.00100248
0.000989086
0.00100249
0.000989088
0.000989094
0.00100249
0.00100248
0.000989086
0.0010003
0.0010003
0.0010003
0.000973435
0.000973434
0.000973435
0.000973435
0.000989158
0.00100245
0.00100025
0.000991283
0.00100243
0.000989124
0.000991298
0.00100248
0.000989087
0.000989158
0.00100025
0.00100245
0.000991282
0.00100243
0.000991298
0.000989124
0.00100249
0.00100249
0.000989207
0.000989084
0.000989084
0.000953275
0.000966665
0.000966662
0.000953267
0.000966664
0.000953268
0.000953275
0.000966665
0.000966662
0.000953267
0.00096448
0.00096448
0.00096448
0.000937616
0.000937615
0.000937615
0.000937615
0.000953339
0.000966628
0.000964433
0.000955463
0.000966608
0.000953305
0.000955479
0.000966664
0.000953268
0.000953339
0.000964433
0.000966628
0.000955463
0.000966607
0.000955479
0.000953305
0.000966671
0.000966671
0.000953388
0.000953265
0.000953265
0.000917458
0.000930846
0.000930844
0.00091745
0.000930846
0.000917451
0.000917458
0.000930846
0.000930844
0.00091745
0.000928661
0.000928661
0.000928661
0.0009018
0.0009018
0.0009018
0.0009018
0.000917522
0.00093081
0.000928615
0.000919646
0.000930789
0.000917488
0.000919661
0.000930846
0.000917451
0.00091752
0.000928615
0.000930809
0.000919645
0.000930788
0.000919661
0.000917487
0.000930852
0.000930852
0.000917571
0.000917448
0.000917447
0.000881643
0.000895031
0.000895029
0.000881635
0.000895031
0.000881636
0.000881643
0.000895031
0.000895029
0.000881635
0.000892846
0.000892846
0.000892846
0.000865986
0.000865986
0.000865986
0.000865986
0.000881707
0.000894994
0.0008928
0.000883831
0.000894974
0.000881673
0.000883847
0.000895031
0.000881636
0.000881708
0.0008928
0.000894995
0.000883831
0.000894974
0.000883847
0.000881674
0.000895037
0.000895037
0.000881756
0.000881633
0.000881634
0.00084583
0.000859217
0.000859215
0.000845822
0.000859217
0.000845823
0.00084583
0.000859217
0.000859215
0.000845823
0.000857032
0.000857033
0.000857033
0.000830173
0.000830173
0.000830173
0.000830173
0.000845894
0.00085918
0.000856987
0.000848018
0.00085916
0.00084586
0.000848033
0.000859217
0.000845824
0.000845894
0.000856987
0.000859181
0.000848018
0.000859161
0.000848034
0.000845861
0.000859223
0.000859224
0.000845944
0.000845821
0.000845821
0.000810018
0.000823405
0.000823403
0.00081001
0.000823405
0.000810011
0.000810018
0.000823405
0.000823403
0.00081001
0.00082122
0.00082122
0.00082122
0.00079436
0.00079436
0.00079436
0.00079436
0.000810081
0.000823368
0.000821174
0.000812205
0.000823348
0.000810048
0.000812221
0.000823405
0.000810011
0.000810081
0.000821174
0.000823369
0.000812205
0.000823348
0.000812221
0.000810048
0.000823411
0.000823411
0.000810131
0.000810008
0.000810008
0.000774205
0.000787593
0.00078759
0.000774197
0.000787592
0.000774198
0.000774205
0.000787593
0.00078759
0.000774197
0.000785407
0.000785407
0.000785407
0.000758548
0.000758547
0.000758548
0.000758548
0.000774269
0.000787555
0.000785361
0.000776392
0.000787535
0.000774235
0.000776408
0.000787592
0.000774198
0.000774269
0.000785361
0.000787556
0.000776393
0.000787535
0.000776408
0.000774235
0.000787598
0.000787598
0.000774318
0.000774195
0.000774195
0.000738392
0.00075178
0.000751777
0.000738384
0.000751779
0.000738385
0.000738392
0.00075178
0.000751778
0.000738384
0.000749594
0.000749594
0.000749594
0.000722734
0.000722734
0.000722734
0.000722734
0.000738456
0.000751743
0.000749548
0.000740579
0.000751722
0.000738422
0.000740595
0.00075178
0.000738385
0.000738456
0.000749549
0.000751743
0.00074058
0.000751722
0.000740595
0.000738422
0.000751786
0.000751786
0.000738505
0.000738382
0.000738382
0.000702579
0.000715966
0.000715964
0.000702571
0.000715966
0.000702572
0.000702578
0.000715966
0.000715964
0.000702571
0.000713781
0.000713781
0.000713781
0.000686921
0.000686921
0.00068692
0.000686921
0.000702642
0.000715929
0.000713735
0.000704766
0.000715909
0.000702609
0.000704782
0.000715966
0.000702572
0.000702642
0.000713735
0.000715929
0.000704766
0.000715909
0.000704781
0.000702608
0.000715972
0.000715972
0.000702691
0.000702569
0.000702569
0.000666765
0.000680153
0.00068015
0.000666757
0.000680153
0.000666759
0.000666765
0.000680153
0.000680151
0.000666758
0.000677967
0.000677967
0.000677967
0.000651107
0.000651107
0.000651107
0.000651108
0.000666829
0.000680116
0.000677922
0.000668953
0.000680096
0.000666795
0.000668968
0.000680153
0.000666758
0.000666829
0.000677921
0.000680116
0.000668953
0.000680095
0.000668968
0.000666795
0.000680159
0.000680159
0.000666878
0.000666756
0.000666756
0.000630952
0.00064434
0.000644337
0.000630944
0.000644339
0.000630945
0.000630952
0.00064434
0.000644338
0.000630944
0.000642154
0.000642154
0.000642154
0.000615294
0.000615294
0.000615294
0.000615294
0.000631015
0.000644302
0.000642108
0.000633139
0.000644282
0.000630981
0.000633155
0.00064434
0.000630945
0.000631015
0.000642108
0.000644303
0.000633139
0.000644282
0.000633155
0.000630982
0.000644345
0.000644346
0.000631064
0.000630942
0.000630942
0.000595138
0.000608526
0.000608524
0.00059513
0.000608526
0.000595132
0.000595138
0.000608526
0.000608524
0.000595131
0.00060634
0.000606341
0.00060634
0.00057948
0.00057948
0.00057948
0.00057948
0.000595202
0.000608488
0.000606295
0.000597326
0.000608468
0.000595168
0.000597341
0.000608526
0.000595132
0.000595202
0.000606295
0.000608489
0.000597326
0.000608468
0.000597341
0.000595168
0.000608532
0.000608532
0.000595251
0.000595129
0.000595129
0.000559324
0.000572713
0.00057271
0.000559316
0.000572712
0.000559318
0.000559324
0.000572713
0.00057271
0.000559317
0.000570527
0.000570527
0.000570527
0.000543665
0.000543666
0.000543665
0.000543666
0.000559388
0.000572676
0.000570481
0.000561512
0.000572655
0.000559355
0.000561527
0.000572713
0.000559317
0.000559388
0.000570481
0.000572676
0.000561512
0.000572655
0.000561527
0.000559354
0.000572719
0.000572719
0.000559437
0.000559315
0.000559315
0.000523509
0.000536898
0.000536895
0.000523501
0.000536898
0.000523503
0.000523509
0.000536898
0.000536895
0.000523501
0.000534712
0.000534712
0.000534712
0.00050785
0.000507851
0.00050785
0.000507851
0.000523573
0.000536861
0.000534666
0.000525697
0.00053684
0.000523539
0.000525712
0.000536897
0.000523502
0.000523573
0.000534666
0.00053686
0.000525697
0.00053684
0.000525712
0.000523539
0.000536904
0.000536904
0.000523622
0.0005235
0.0005235
0.000487695
0.000501083
0.000501081
0.000487687
0.000501083
0.000487688
0.000487694
0.000501083
0.000501081
0.000487687
0.000498897
0.000498897
0.000498897
0.000472035
0.000472035
0.000472035
0.000472035
0.000487758
0.000501046
0.000498851
0.000489882
0.000501025
0.000487725
0.000489897
0.000501083
0.000487688
0.000487758
0.000498851
0.000501046
0.000489882
0.000501025
0.000489897
0.000487724
0.000501089
0.000501089
0.000487807
0.000487685
0.000487685
0.000451879
0.000465268
0.000465265
0.000451871
0.000465268
0.000451872
0.000451879
0.000465268
0.000465265
0.000451871
0.000463082
0.000463082
0.000463082
0.000436219
0.000436219
0.000436219
0.000436219
0.000451942
0.00046523
0.000463036
0.000454066
0.00046521
0.000451909
0.000454081
0.000465268
0.000451871
0.000451942
0.000463036
0.00046523
0.000454066
0.00046521
0.000454081
0.000451908
0.000465273
0.000465274
0.000451992
0.000451869
0.000451869
0.000416062
0.000429451
0.000429449
0.000416054
0.000429451
0.000416055
0.000416062
0.000429451
0.000429449
0.000416054
0.000427265
0.000427265
0.000427265
0.000400402
0.000400402
0.000400402
0.000400402
0.000416125
0.000429414
0.000427219
0.000418249
0.000429393
0.000416092
0.000418265
0.000429451
0.000416055
0.000416125
0.000427219
0.000429414
0.000418249
0.000429393
0.000418265
0.000416092
0.000429457
0.000429457
0.000416175
0.000416052
0.000416052
0.000380245
0.000393635
0.000393632
0.000380236
0.000393634
0.000380237
0.000380244
0.000393635
0.000393632
0.000380236
0.000391448
0.000391448
0.000391448
0.000364583
0.000364583
0.000364583
0.000364583
0.000380308
0.000393597
0.000391403
0.000382432
0.000393577
0.000380275
0.000382447
0.000393635
0.000380237
0.000380308
0.000391403
0.000393597
0.000382432
0.000393576
0.000382447
0.000380275
0.00039364
0.00039364
0.000380358
0.000380235
0.000380235
0.000344425
0.000357816
0.000357813
0.000344417
0.000357816
0.000344417
0.000344425
0.000357816
0.000357813
0.000344417
0.000355631
0.00035563
0.00035563
0.000328764
0.000328764
0.000328764
0.000328764
0.000344489
0.000357778
0.000355584
0.000346613
0.000357758
0.000344456
0.000346629
0.000357817
0.000344417
0.000344489
0.000355584
0.000357778
0.000346613
0.000357758
0.000346629
0.000344456
0.000357821
0.000357822
0.00034454
0.000344416
0.000344416
0.000308606
0.000321997
0.000321994
0.000308598
0.000321998
0.000308597
0.000308606
0.000321997
0.000321994
0.000308598
0.000319812
0.000319812
0.000319812
0.000292944
0.000292944
0.000292944
0.000292944
0.00030867
0.000321958
0.000319766
0.000310794
0.000321939
0.000308638
0.000310809
0.000321997
0.000308597
0.00030867
0.000319766
0.000321958
0.000310794
0.000321939
0.000310809
0.000308637
0.000322002
0.000322002
0.000308721
0.000308597
0.000308597
0.000272786
0.000286178
0.000286176
0.000272778
0.00028618
0.000272776
0.000272786
0.000286178
0.000286176
0.000272778
0.000283994
0.000283994
0.000283994
0.000257119
0.000257119
0.000257119
0.000257119
0.00027285
0.000286139
0.000283947
0.000274975
0.00028612
0.000272818
0.00027499
0.00028618
0.000272777
0.00027285
0.000283947
0.000286139
0.000274975
0.00028612
0.00027499
0.000272818
0.000286182
0.000286182
0.000272903
0.000272778
0.000272778
0.000236961
0.000250356
0.000250353
0.000236952
0.000250359
0.000236949
0.00023696
0.000250356
0.000250354
0.000236952
0.000248169
0.000248169
0.000248169
0.000221289
0.000221288
0.000221288
0.000221288
0.000237025
0.000250315
0.000248125
0.000239151
0.000250298
0.000236995
0.000239166
0.000250359
0.000236949
0.000237025
0.000248125
0.000250315
0.000239151
0.000250298
0.000239166
0.000236995
0.000250359
0.000250359
0.00023708
0.000236954
0.000236954
0.000201128
0.000214527
0.000214525
0.00020112
0.000214532
0.000201114
0.000201128
0.000214528
0.000214525
0.00020112
0.00021234
0.00021234
0.00021234
0.000185451
0.000185451
0.000185451
0.000185451
0.000201192
0.000214484
0.000212296
0.00020332
0.000214469
0.000201165
0.000203335
0.000214532
0.000201114
0.000201193
0.000212296
0.000214484
0.00020332
0.000214469
0.000203335
0.000201166
0.000214528
0.000214528
0.000201252
0.000201124
0.000201124
0.00016529
0.000178693
0.000178691
0.000165282
0.000178703
0.000165273
0.00016529
0.000178693
0.000178691
0.000165283
0.000176507
0.000176507
0.000176506
0.000149607
0.000149607
0.000149607
0.000149606
0.000165355
0.000178645
0.000176463
0.000167484
0.000178636
0.000165334
0.0001675
0.000178702
0.000165272
0.000165355
0.000176463
0.000178646
0.000167484
0.000178636
0.0001675
0.000165334
0.000178691
0.000178692
0.00016542
0.000165292
0.000165292
0.000129445
0.000142855
0.000142853
0.000129442
0.000142873
0.00012942
0.000129445
0.000142854
0.000142853
0.000129443
0.000140667
0.000140667
0.000140667
0.000113745
0.000113746
0.000113745
0.000113745
0.000129508
0.000142798
0.000140625
0.000131641
0.000142799
0.0001295
0.00013166
0.000142872
0.000129419
0.000129507
0.000140624
0.000142797
0.000131641
0.000142799
0.00013166
0.000129499
0.000142847
0.000142847
0.000129583
0.000129456
0.000129456
9.35845e-05
0.000107
0.000107003
9.35865e-05
0.00010704
9.35395e-05
9.35837e-05
0.000107001
0.000107003
9.3586e-05
0.000104813
0.000104813
0.000104813
7.78609e-05
7.78604e-05
7.786e-05
7.78602e-05
9.36382e-05
0.000106932
0.000104774
9.57839e-05
0.000106954
9.36604e-05
9.58041e-05
0.000107039
9.35379e-05
9.36374e-05
0.000104773
0.000106932
9.57826e-05
0.000106953
9.58037e-05
9.3659e-05
0.000106985
0.000106985
9.37332e-05
9.36103e-05
9.36094e-05
5.76875e-05
7.112e-05
7.11321e-05
5.77076e-05
7.12086e-05
5.75857e-05
5.76853e-05
7.11193e-05
7.11308e-05
5.77052e-05
6.8942e-05
6.89419e-05
6.89421e-05
4.23032e-05
4.23046e-05
4.23004e-05
4.23006e-05
5.77267e-05
7.10265e-05
6.89119e-05
5.99046e-05
7.1097e-05
5.78078e-05
5.99618e-05
7.12043e-05
5.75875e-05
5.77251e-05
6.89104e-05
7.1025e-05
5.99033e-05
7.10959e-05
5.99588e-05
5.78055e-05
7.1088e-05
7.10881e-05
5.78727e-05
5.77437e-05
5.77435e-05
2.11671e-05
3.49305e-05
3.49885e-05
2.067e-05
3.51267e-05
2.03004e-05
2.11545e-05
3.49233e-05
3.49828e-05
2.06616e-05
3.3828e-05
3.3824e-05
3.38236e-05
9.01567e-06
9.01388e-06
9.01401e-06
9.01353e-06
2.1538e-05
3.48476e-05
3.3396e-05
2.50894e-05
3.51141e-05
2.11476e-05
2.4832e-05
3.51143e-05
2.03043e-05
2.15384e-05
3.33942e-05
3.48453e-05
2.50872e-05
3.51139e-05
2.4831e-05
2.11497e-05
3.48524e-05
3.48527e-05
2.27194e-05
2.07833e-05
2.07815e-05
-7.24015e-07
-5.44724e-07
2.73447e-06
-4.40083e-06
-7.84368e-07
-5.44175e-06
-7.13618e-07
-5.57735e-07
2.72312e-06
-4.39784e-06
7.72641e-07
4.61333e-06
4.61384e-06
1.38666e-06
5.29833e-06
-1.18776e-07
-1.16169e-07
-4.40486e-07
-5.20914e-07
3.64864e-06
1.14839e-06
2.87993e-06
2.30882e-06
-1.04172e-06
-8.11456e-07
-5.43003e-06
-4.3733e-07
3.64836e-06
-5.2298e-07
1.14777e-06
2.87988e-06
-1.04267e-06
2.31398e-06
-1.55604e-06
-1.55777e-06
-3.40291e-07
5.09722e-08
6.27754e-08
0.00104283
0.00104283
0.00104282
0.00104282
0.00104283
0.00104283
0.00104282
0.00105623
0.00104283
0.00104286
0.00104503
0.00104289
0.00105397
0.00104286
0.00104503
0.00105619
0.00104289
0.00104283
0.00105622
0.00105606
0.00104282
0.00104282
0.00105623
0.00105623
0.00104282
0.00105623
0.00104283
0.00104283
0.00104286
0.00104503
0.00104289
0.00104283
0.00104283
0.00104503
0.00104286
0.00104289
0.00105616
0.00105397
0.00104286
0.00104503
0.00105619
0.00105399
0.00104289
0.00105622
0.00104282
0.00105623
0.00104283
0.00105616
0.00105397
0.00104503
0.00104286
0.00105399
0.00105619
0.00104289
0.00105622
0.00104282
0.00105623
0.00104283
0.00104283
0.00104282
0.00104282
0.00104283
0.00104503
0.00104286
0.00104289
0.00105397
0.00104503
0.00104286
0.00105619
0.00104289
0.00104283
0.00104283
0.00104282
0.00105623
0.00104283
0.00105606
0.00104282
0.00104282
0.00105623
0.00105623
0.00104282
0.00105622
0.00104282
0.00105622
0.00103831
0.00102491
0.00103831
0.00102491
0.00103832
0.00103832
0.00102503
0.00102491
0.00102491
0.001007
0.0010204
0.001007
0.0010204
0.00102024
0.001007
0.001007
0.0010204
0.0010204
0.00102492
0.00103831
0.00103831
0.00102491
0.00102498
0.00103828
0.00103608
0.00102711
0.00103825
0.00102495
0.00102712
0.00102498
0.00103827
0.00103608
0.00102711
0.00103825
0.00102495
0.00102712
0.00102039
0.001007
0.0010204
0.00100701
0.00102039
0.001007
0.0010204
0.00100701
0.00102034
0.00101815
0.00100704
0.00100921
0.00102036
0.00101817
0.00100707
0.00102034
0.00101815
0.00100704
0.00100921
0.00102036
0.00101817
0.00100707
0.00103832
0.00103832
0.00102503
0.00102491
0.00102491
0.00103831
0.00102491
0.001007
0.0010204
0.00102024
0.001007
0.001007
0.0010204
0.0010204
0.001007
0.0010204
0.00102498
0.00103827
0.00103608
0.0010271
0.00103825
0.00102495
0.00102712
0.00102492
0.00103831
0.00103831
0.00102491
0.00102498
0.00103608
0.00103827
0.0010271
0.00103825
0.00102712
0.00102495
0.00102039
0.001007
0.0010204
0.00100701
0.00102034
0.00101815
0.00100704
0.00100921
0.00102036
0.00101816
0.00100707
0.00102039
0.001007
0.0010204
0.00100701
0.00102034
0.00101815
0.00100921
0.00100704
0.00101816
0.00102036
0.00100707
0.00102492
0.00103831
0.00103831
0.00102491
0.00102498
0.00103608
0.00103827
0.00102711
0.00103825
0.00102712
0.00102495
0.00102492
0.00103831
0.00103831
0.00102491
0.00102034
0.00101815
0.00100704
0.00100921
0.00102036
0.00101816
0.00100707
0.00102039
0.001007
0.0010204
0.00100701
0.00102034
0.00101815
0.00100921
0.00100704
0.00101817
0.00102036
0.00100707
0.00102039
0.001007
0.0010204
0.00100701
0.00103832
0.00103832
0.00102503
0.00102491
0.00102491
0.00103831
0.00102491
0.001007
0.0010204
0.00102024
0.001007
0.001007
0.0010204
0.0010204
0.001007
0.0010204
0.00102498
0.00103608
0.00103827
0.00102711
0.00103825
0.00102712
0.00102495
0.00102492
0.00103831
0.00103831
0.00102491
0.00102492
0.00103831
0.00103831
0.00102491
0.00102034
0.00101815
0.00100921
0.00100704
0.00101817
0.00102036
0.00100707
0.00102034
0.00101815
0.00100921
0.00100704
0.00101817
0.00102036
0.00100707
0.00102039
0.001007
0.0010204
0.00100701
0.00102039
0.001007
0.0010204
0.00100701
0.00103831
0.00102491
0.00103831
0.00102491
0.00102024
0.001007
0.001007
0.0010204
0.0010204
0.001007
0.0010204
0.001007
0.0010204
0.00100248
0.000989087
0.00100249
0.000989088
0.00100249
0.00100249
0.000989207
0.000989085
0.000989085
0.000971178
0.000984574
0.000971178
0.000984574
0.000984414
0.000971175
0.000971175
0.000984581
0.000984581
0.000989094
0.00100249
0.00100248
0.000989087
0.000989158
0.00100245
0.00100025
0.000991283
0.00100243
0.000989124
0.000991298
0.000989158
0.00100245
0.00100025
0.000991283
0.00100243
0.000989125
0.000991299
0.000984572
0.000971176
0.000984574
0.000971184
0.000984572
0.000971177
0.000984575
0.000971184
0.000984518
0.000982328
0.000971214
0.000973388
0.000984538
0.000982343
0.000971249
0.000984517
0.000982327
0.000971215
0.000973388
0.000984538
0.000982343
0.000971248
0.00100249
0.00100249
0.000989208
0.000989085
0.000989085
0.00100249
0.000989087
0.000971178
0.000984574
0.000984414
0.000971175
0.000971175
0.000984581
0.00098458
0.000971178
0.000984574
0.000989158
0.00100245
0.00100025
0.000991283
0.00100243
0.000989124
0.000991298
0.000989094
0.00100249
0.00100248
0.000989086
0.000989158
0.00100025
0.00100245
0.000991283
0.00100243
0.000991299
0.000989124
0.000984572
0.000971176
0.000984574
0.000971184
0.000984517
0.000982327
0.000971214
0.000973388
0.000984537
0.000982343
0.000971249
0.000984572
0.000971176
0.000984574
0.000971184
0.000984517
0.000982327
0.000973388
0.000971214
0.000982343
0.000984537
0.000971248
0.000989094
0.00100249
0.00100248
0.000989087
0.000989158
0.00100025
0.00100245
0.000991283
0.00100243
0.000991298
0.000989124
0.000989094
0.00100249
0.00100248
0.000989086
0.000984517
0.000982327
0.000971215
0.000973388
0.000984537
0.000982343
0.000971248
0.000984572
0.000971176
0.000984574
0.000971184
0.000984517
0.000982328
0.000973388
0.000971214
0.000982343
0.000984537
0.000971248
0.000984572
0.000971176
0.000984574
0.000971184
0.00100249
0.00100249
0.000989207
0.000989085
0.000989084
0.00100248
0.000989087
0.000971177
0.000984574
0.000984414
0.000971175
0.000971174
0.00098458
0.00098458
0.000971177
0.000984574
0.000989158
0.00100025
0.00100245
0.000991283
0.00100243
0.000991298
0.000989124
0.000989094
0.00100249
0.00100248
0.000989086
0.000989094
0.00100249
0.00100248
0.000989086
0.000984517
0.000982327
0.000973388
0.000971214
0.000982343
0.000984537
0.000971248
0.000984517
0.000982327
0.000973388
0.000971214
0.000982343
0.000984537
0.000971248
0.000984572
0.000971176
0.000984574
0.000971184
0.000984572
0.000971176
0.000984574
0.000971184
0.00100248
0.000989087
0.00100248
0.000989087
0.000984414
0.000971175
0.000971174
0.00098458
0.00098458
0.000971177
0.000984574
0.000971177
0.000984574
0.000966664
0.000953268
0.000966664
0.000953268
0.000966671
0.000966671
0.000953388
0.000953265
0.000953265
0.000935359
0.000948755
0.000935359
0.000948755
0.000948595
0.000935356
0.000935356
0.000948762
0.000948762
0.000953275
0.000966665
0.000966662
0.000953267
0.000953339
0.000966628
0.000964434
0.000955463
0.000966608
0.000953305
0.000955479
0.000953339
0.000966628
0.000964434
0.000955463
0.000966608
0.000953305
0.000955479
0.000948753
0.000935358
0.000948755
0.000935366
0.000948753
0.000935358
0.000948756
0.000935366
0.000948698
0.000946509
0.000935396
0.00093757
0.000948719
0.000946524
0.00093543
0.000948698
0.000946508
0.000935396
0.00093757
0.000948719
0.000946524
0.00093543
0.000966671
0.000966671
0.000953388
0.000953266
0.000953266
0.000966665
0.000953268
0.000935359
0.000948755
0.000948595
0.000935356
0.000935357
0.000948762
0.000948761
0.000935359