/*--------------------------------*- C++ -*----------------------------------*\
| =========                 |                                                 |
| \\      /  F ield         | OpenFOAM: The Open Source CFD Toolbox           |
|  \\    /   O peration     | Version:  v1912                                 |
|   \\  /    A nd           | Website:  www.openfoam.com                      |
|    \\/     M anipulation  |                                                 |
\*---------------------------------------------------------------------------*/
FoamFile
{
    version     2.0;
    format      ascii;
    class       surfaceScalarField;
    location    "120";
    object      phi;
}
// * * * * * * * * * * * * * * * * * * * * * * * * * * * * * * * * * * * * * //

dimensions      [0 3 -1 0 0 0 0];
oriented        oriented;


internalField   nonuniform List<scalar> 
165494
(
6.04785e-09
6.78693e-09
-0.00116128
-6.37904e-09
-6.35617e-09
0.00116128
-0.00114385
-1.32034e-06
-6.60171e-09
1.28194e-08
0.00114385
-3.05626e-07
1.32968e-06
2.99977e-07
9.76835e-07
-2.92071e-07
-9.76174e-07
2.80972e-07
-0.00114348
-1.31472e-06
-6.62598e-09
1.28948e-08
0.00114348
-3.05602e-07
1.32394e-06
2.9996e-07
9.76546e-07
-2.94754e-07
-9.7602e-07
2.83727e-07
-0.000275961
1.35006e-06
1.31494e-06
-2.69735e-07
-2.75122e-07
0.000273841
6.04078e-09
6.69354e-09
-0.00116128
-6.39111e-09
-6.35734e-09
0.00116128
-0.00114385
-1.32036e-06
-6.6328e-09
1.29231e-08
0.00114385
-3.05602e-07
1.32966e-06
2.99975e-07
9.76841e-07
-2.91983e-07
-9.76123e-07
2.81058e-07
-0.00114348
-1.31472e-06
-6.53125e-09
1.29627e-08
0.00114348
-3.05585e-07
1.32396e-06
3.00004e-07
9.76587e-07
-2.9474e-07
-9.76e-07
2.83785e-07
-0.000275962
1.35005e-06
1.31492e-06
-2.69715e-07
-2.7509e-07
0.000273841
6.0447e-09
6.5775e-09
-0.00116128
-6.34067e-09
-6.32099e-09
0.00116128
-0.00114385
-1.32036e-06
-6.61893e-09
1.29307e-08
0.00114385
-3.05584e-07
1.32963e-06
2.99974e-07
9.76808e-07
-2.91933e-07
-9.76131e-07
2.81075e-07
-0.00114348
-1.31473e-06
-6.6076e-09
1.29414e-08
0.00114349
-3.05539e-07
1.32393e-06
3.0002e-07
9.76547e-07
-2.94649e-07
-9.76007e-07
2.83841e-07
-0.000275962
1.35001e-06
1.3149e-06
-2.697e-07
-2.75063e-07
0.000273842
6.11577e-09
6.7362e-09
-0.00116128
-6.44718e-09
-6.37319e-09
0.00116128
-0.00114385
-1.32034e-06
-6.70096e-09
1.29242e-08
0.00114385
-3.05567e-07
1.32963e-06
2.9997e-07
9.76823e-07
-2.91924e-07
-9.76079e-07
2.81076e-07
-0.00114349
-1.31471e-06
-6.84997e-09
1.28531e-08
0.00114349
-3.05508e-07
1.32392e-06
3.0003e-07
9.76653e-07
-2.94593e-07
-9.7587e-07
2.83885e-07
-0.000275963
1.34999e-06
1.31492e-06
-2.69704e-07
-2.75022e-07
0.000273842
6.21773e-09
6.75233e-09
-0.00116128
-6.47858e-09
-6.43509e-09
0.00116128
-0.00114385
-1.32032e-06
-6.74067e-09
1.28768e-08
0.00114385
-3.0553e-07
1.32962e-06
2.99983e-07
9.76839e-07
-2.91881e-07
-9.7604e-07
2.81101e-07
-0.00114349
-1.3147e-06
-6.81292e-09
1.29213e-08
0.00114349
-3.05509e-07
1.32391e-06
2.99997e-07
9.7666e-07
-2.94564e-07
-9.75834e-07
2.83877e-07
-0.000275963
1.35e-06
1.31492e-06
-2.69684e-07
-2.75022e-07
0.000273843
6.2783e-09
6.73532e-09
-0.00116128
-6.46331e-09
-6.46685e-09
0.00116128
-0.00114385
-1.3203e-06
-6.82781e-09
1.28365e-08
0.00114385
-3.05508e-07
1.32962e-06
2.99979e-07
9.76868e-07
-2.91833e-07
-9.75989e-07
2.8113e-07
-0.00114349
-1.31468e-06
-6.82802e-09
1.29294e-08
0.00114349
-3.05489e-07
1.32391e-06
3.00003e-07
9.76643e-07
-2.94562e-07
-9.75841e-07
2.83875e-07
-0.000275963
1.35001e-06
1.31491e-06
-2.69666e-07
-2.75022e-07
0.000273843
6.31319e-09
6.76903e-09
-0.00116128
-6.47417e-09
-6.49336e-09
0.00116128
-0.00114385
-1.32028e-06
-6.88163e-09
1.28846e-08
0.00114385
-3.05505e-07
1.32963e-06
2.99966e-07
9.76885e-07
-2.91806e-07
-9.75949e-07
2.81138e-07
-0.00114349
-1.31468e-06
-6.9172e-09
1.29369e-08
0.00114349
-3.05481e-07
1.32389e-06
2.99985e-07
9.76689e-07
-2.94508e-07
-9.75785e-07
2.8391e-07
-0.000275963
1.35e-06
1.31487e-06
-2.69624e-07
-2.75004e-07
0.000273843
6.38202e-09
6.80626e-09
-0.00116128
-6.46771e-09
-6.51996e-09
0.00116128
-0.00114385
-1.32026e-06
-7.02017e-09
1.2811e-08
0.00114385
-3.05475e-07
1.32964e-06
2.99974e-07
9.76921e-07
-2.9175e-07
-9.75897e-07
2.81182e-07
-0.00114349
-1.31467e-06
-6.9512e-09
1.29705e-08
0.00114349
-3.05469e-07
1.32389e-06
2.99977e-07
9.76706e-07
-2.94476e-07
-9.75751e-07
2.83925e-07
-0.000275963
1.34998e-06
1.31486e-06
-2.6961e-07
-2.7498e-07
0.000273843
6.30485e-09
6.85121e-09
-0.00116128
-6.46431e-09
-6.48069e-09
0.00116128
-0.00114385
-1.32028e-06
-7.13051e-09
1.28425e-08
0.00114385
-3.05479e-07
1.3296e-06
2.99961e-07
9.76951e-07
-2.91701e-07
-9.75849e-07
2.81219e-07
-0.00114348
-1.31464e-06
-6.95274e-09
1.29515e-08
0.00114348
-3.05441e-07
1.3239e-06
2.99991e-07
9.76698e-07
-2.94471e-07
-9.75746e-07
2.83918e-07
-0.000275963
1.34996e-06
1.31482e-06
-2.69564e-07
-2.74963e-07
0.000273842
6.37848e-09
6.87699e-09
-0.00116128
-6.50362e-09
-6.52142e-09
0.00116128
-0.00114385
-1.32025e-06
-7.09575e-09
1.28041e-08
0.00114385
-3.05449e-07
1.32962e-06
2.99985e-07
9.76942e-07
-2.9168e-07
-9.75835e-07
2.81218e-07
-0.00114348
-1.31462e-06
-6.99402e-09
1.2883e-08
0.00114348
-3.0542e-07
1.3239e-06
2.99999e-07
9.76701e-07
-2.94453e-07
-9.75733e-07
2.83928e-07
-0.000275962
1.34994e-06
1.31481e-06
-2.69556e-07
-2.7495e-07
0.000273842
6.47683e-09
7.05249e-09
-0.00116128
-6.66576e-09
-6.59971e-09
0.00116128
-0.00114385
-1.3202e-06
-6.91567e-09
1.27067e-08
0.00114385
-3.05401e-07
1.32965e-06
3.00022e-07
9.76895e-07
-2.91715e-07
-9.75863e-07
2.81166e-07
-0.00114348
-1.3146e-06
-7.11847e-09
1.27841e-08
0.00114348
-3.05396e-07
1.32391e-06
3.00021e-07
9.76743e-07
-2.94399e-07
-9.7568e-07
2.83969e-07
-0.000275962
1.34989e-06
1.31483e-06
-2.6957e-07
-2.74897e-07
0.000273842
6.61094e-09
6.93469e-09
-0.00116128
-6.62946e-09
-6.66033e-09
0.00116128
-0.00114385
-1.32017e-06
-7.03261e-09
1.25811e-08
0.00114385
-3.05373e-07
1.32967e-06
3.00037e-07
9.76901e-07
-2.91701e-07
-9.75842e-07
2.81169e-07
-0.00114348
-1.31456e-06
-7.09204e-09
1.26549e-08
0.00114348
-3.05352e-07
1.32394e-06
3.00054e-07
9.76716e-07
-2.94403e-07
-9.75683e-07
2.83941e-07
-0.000275961
1.3499e-06
1.3148e-06
-2.6955e-07
-2.74904e-07
0.000273841
6.42824e-09
6.69185e-09
-0.00116128
-6.37258e-09
-6.54423e-09
0.00116128
-0.00114385
-1.3202e-06
-7.25984e-09
1.26987e-08
0.00114385
-3.05414e-07
1.32961e-06
2.9998e-07
9.76956e-07
-2.91618e-07
-9.75763e-07
2.81228e-07
-0.00114348
-1.31459e-06
-6.9575e-09
1.28124e-08
0.00114348
-3.05381e-07
1.32389e-06
3.0001e-07
9.76666e-07
-2.94428e-07
-9.75713e-07
2.83893e-07
-0.000275961
1.34994e-06
1.31473e-06
-2.69477e-07
-2.74946e-07
0.000273841
6.3551e-09
6.69473e-09
-0.00116128
-6.38242e-09
-6.49606e-09
0.00116128
-0.00114385
-1.32019e-06
-7.1543e-09
1.27233e-08
0.00114385
-3.05399e-07
1.32962e-06
2.99983e-07
9.76903e-07
-2.91615e-07
-9.75759e-07
2.81169e-07
-0.00114348
-1.3146e-06
-6.92825e-09
1.28567e-08
0.00114348
-3.05399e-07
1.32386e-06
2.99974e-07
9.76643e-07
-2.94406e-07
-9.75697e-07
2.8387e-07
-0.000275961
1.34991e-06
1.31474e-06
-2.69485e-07
-2.74917e-07
0.00027384
6.30192e-09
6.83798e-09
-0.00116127
-6.52323e-09
-6.49191e-09
0.00116127
-0.00114384
-1.32016e-06
-6.63825e-09
1.27827e-08
0.00114384
-3.05379e-07
1.32961e-06
2.99977e-07
9.76757e-07
-2.9171e-07
-9.75847e-07
2.81009e-07
-0.00114348
-1.31457e-06
-6.88808e-09
1.28005e-08
0.00114348
-3.05376e-07
1.32386e-06
2.99978e-07
9.76618e-07
-2.94369e-07
-9.75658e-07
2.83837e-07
-0.00027596
1.34987e-06
1.31479e-06
-2.69523e-07
-2.74869e-07
0.00027384
6.28672e-09
6.94737e-09
-0.00116127
-6.66643e-09
-6.49412e-09
0.00116127
-0.00114384
-1.32013e-06
-6.54376e-09
1.27191e-08
0.00114384
-3.05371e-07
1.32959e-06
2.99938e-07
9.76714e-07
-2.91644e-07
-9.75793e-07
2.80968e-07
-0.00114348
-1.31452e-06
-6.77284e-09
1.26586e-08
0.00114348
-3.0533e-07
1.32387e-06
2.99981e-07
9.76554e-07
-2.94329e-07
-9.75623e-07
2.83766e-07
-0.00027596
1.34984e-06
1.31477e-06
-2.69491e-07
-2.74839e-07
0.00027384
6.07195e-09
6.73955e-09
-0.00116127
-6.53493e-09
-6.37807e-09
0.00116127
-0.00114384
-1.32011e-06
-6.62839e-09
1.27162e-08
0.00114384
-3.05346e-07
1.32955e-06
2.99901e-07
9.76673e-07
-2.91507e-07
-9.75663e-07
2.80918e-07
-0.00114348
-1.31448e-06
-6.66192e-09
1.27003e-08
0.00114348
-3.05305e-07
1.32384e-06
2.99943e-07
9.76476e-07
-2.94237e-07
-9.75534e-07
2.83673e-07
-0.00027596
1.34981e-06
1.31474e-06
-2.69426e-07
-2.74773e-07
0.000273839
5.67346e-09
6.37296e-09
-0.00116127
-6.31768e-09
-6.15365e-09
0.00116127
-0.00114384
-1.32011e-06
-6.31522e-09
1.28369e-08
0.00114384
-3.0535e-07
1.32944e-06
2.99787e-07
9.76503e-07
-2.91382e-07
-9.75551e-07
2.80737e-07
-0.00114347
-1.31445e-06
-6.34588e-09
1.27538e-08
0.00114347
-3.05271e-07
1.32377e-06
2.99865e-07
9.76302e-07
-2.94117e-07
-9.75429e-07
2.83487e-07
-0.000275959
1.3498e-06
1.31472e-06
-2.69361e-07
-2.7471e-07
0.000273839
5.02161e-09
5.62943e-09
-0.00116127
-5.91715e-09
-5.80519e-09
0.00116127
-0.00114384
-1.3201e-06
-5.65284e-09
1.3098e-08
0.00114384
-3.05343e-07
1.32928e-06
2.99612e-07
9.7618e-07
-2.91231e-07
-9.75415e-07
2.8039e-07
-0.00114347
-1.31443e-06
-5.79903e-09
1.297e-08
0.00114347
-3.05262e-07
1.32361e-06
2.99687e-07
9.75999e-07
-2.93939e-07
-9.75274e-07
2.83167e-07
-0.000275959
1.34975e-06
1.31467e-06
-2.69239e-07
-2.7459e-07
0.000273838
4.10922e-09
4.65045e-09
-0.00116127
-5.49733e-09
-5.40282e-09
0.00116127
-0.00114384
-1.32001e-06
-4.72423e-09
1.33113e-08
0.00114384
-3.05235e-07
1.32907e-06
2.99396e-07
9.75654e-07
-2.90957e-07
-9.75171e-07
2.79839e-07
-0.00114347
-1.31436e-06
-4.7964e-09
1.32668e-08
0.00114347
-3.05182e-07
1.32338e-06
2.99446e-07
9.75456e-07
-2.93684e-07
-9.75045e-07
2.82594e-07
-0.000275959
1.34967e-06
1.31458e-06
-2.69023e-07
-2.74372e-07
0.000273838
2.87277e-09
3.41806e-09
-0.00116127
-5.16849e-09
-5.08242e-09
0.00116127
-0.00114384
-1.31982e-06
-3.30272e-09
1.35218e-08
0.00114384
-3.05039e-07
1.32874e-06
2.99046e-07
9.74798e-07
-2.90498e-07
-9.74762e-07
2.78946e-07
-0.00114347
-1.31419e-06
-3.38527e-09
1.34765e-08
0.00114347
-3.04974e-07
1.32305e-06
2.99104e-07
9.74606e-07
-2.93219e-07
-9.74633e-07
2.81712e-07
-0.000275959
1.34952e-06
1.31444e-06
-2.68662e-07
-2.74011e-07
0.000273837
8.10727e-10
1.55122e-09
-0.00116127
-4.79737e-09
-4.6652e-09
0.00116128
-0.00114384
-1.31956e-06
-1.18821e-09
1.39841e-08
0.00114384
-3.04728e-07
1.32814e-06
2.98395e-07
9.73436e-07
-2.89706e-07
-9.74031e-07
2.77496e-07
-0.00114347
-1.31393e-06
-1.4567e-09
1.38825e-08
0.00114347
-3.04627e-07
1.32245e-06
2.98463e-07
9.73283e-07
-2.92381e-07
-9.73863e-07
2.80308e-07
-0.000275959
1.34925e-06
1.31419e-06
-2.68061e-07
-2.73378e-07
0.000273837
-1.65015e-09
-1.30019e-09
-0.00116127
-4.333e-09
-4.25055e-09
0.00116128
-0.00114384
-1.31912e-06
1.48445e-09
1.47078e-08
0.00114384
-3.0421e-07
1.32711e-06
2.97245e-07
9.7118e-07
-2.8838e-07
-9.72838e-07
2.7512e-07
-0.00114347
-1.3135e-06
1.32274e-09
1.47102e-08
0.00114347
-3.04129e-07
1.3214e-06
2.97295e-07
9.71039e-07
-2.91054e-07
-9.72652e-07
2.77925e-07
-0.00027596
1.34879e-06
1.31374e-06
-2.67026e-07
-2.72352e-07
0.000273836
-5.01572e-09
-4.79727e-09
-0.00116127
-4.36135e-09
-4.36139e-09
0.00116129
-0.00114384
-1.31829e-06
4.71666e-09
1.56772e-08
0.00114384
-3.03205e-07
1.32535e-06
2.95318e-07
9.67519e-07
-2.86124e-07
-9.70827e-07
2.71211e-07
-0.00114348
-1.31267e-06
4.61894e-09
1.57423e-08
0.00114348
-3.03144e-07
1.31962e-06
2.95345e-07
9.67351e-07
-2.88817e-07
-9.70661e-07
2.73993e-07
-0.000275961
1.34799e-06
1.31286e-06
-2.65232e-07
-2.70634e-07
0.000273836
-8.68947e-09
-8.66534e-09
-0.00116127
-5.94426e-09
-6.17622e-09
0.0011613
-0.00114385
-1.3165e-06
8.03133e-09
1.62365e-08
0.00114385
-3.01061e-07
1.32253e-06
2.92152e-07
9.61838e-07
-2.81976e-07
-9.67192e-07
2.65046e-07
-0.00114348
-1.31092e-06
8.30352e-09
1.65692e-08
0.00114348
-3.01064e-07
1.31679e-06
2.92079e-07
9.61588e-07
-2.84744e-07
-9.67112e-07
2.67749e-07
-0.000275963
1.3462e-06
1.31097e-06
-2.61957e-07
-2.67438e-07
0.000273835
-1.24626e-08
-1.2335e-08
-0.00116127
-1.09214e-08
-1.10751e-08
0.00116132
-0.00114385
-1.31309e-06
1.16727e-08
1.65338e-08
0.00114386
-2.97005e-07
1.31751e-06
2.86332e-07
9.5264e-07
-2.74738e-07
-9.60987e-07
2.54761e-07
-0.00114349
-1.30751e-06
1.19674e-08
1.6876e-08
0.00114349
-2.97003e-07
1.31178e-06
2.86273e-07
9.52395e-07
-2.77528e-07
-9.60905e-07
2.57474e-07
-0.000275966
1.34273e-06
1.30753e-06
-2.56439e-07
-2.61882e-07
0.000273834
-1.69522e-08
-1.67451e-08
-0.00116126
-2.10148e-08
-2.09188e-08
0.00116134
-0.00114385
-1.30664e-06
1.64915e-08
1.71653e-08
0.00114387
-2.89198e-07
1.30795e-06
2.75265e-07
9.37374e-07
-2.62211e-07
-9.50481e-07
2.3698e-07
-0.00114349
-1.30103e-06
1.64728e-08
1.73243e-08
0.00114351
-2.89202e-07
1.30223e-06
2.75268e-07
9.37176e-07
-2.64944e-07
-9.50294e-07
2.39763e-07
-0.000275971
1.33625e-06
1.30117e-06
-2.47315e-07
-2.52611e-07
0.000273833
-6.83775e-09
-6.45961e-09
-0.00116125
-4.48965e-08
-5.02597e-08
0.00116136
-0.00114386
-1.29395e-06
1.21973e-08
4.89973e-09
0.00114391
-2.73742e-07
1.2913e-06
2.58724e-07
9.15914e-07
-2.4251e-07
-9.35565e-07
2.07709e-07
-0.0011435
-1.2855e-06
6.34414e-09
1.05192e-08
0.00114355
-2.73653e-07
1.28279e-06
2.55899e-07
9.12997e-07
-2.42414e-07
-9.32588e-07
2.10575e-07
-0.000275981
1.32641e-06
1.28858e-06
-2.29519e-07
-2.34684e-07
0.00027383
8.61466e-07
8.69044e-07
-0.00116108
-7.86694e-07
-7.75808e-07
0.00116092
-0.00114416
-1.18567e-06
-8.62802e-07
-3.607e-07
0.00114456
-1.74429e-07
1.43849e-06
3.36161e-07
1.05426e-06
-1.1845e-07
-8.16706e-07
2.89964e-07
-0.00114381
-1.17717e-06
-8.74348e-07
-3.72031e-07
0.00114423
-1.74283e-07
1.43288e-06
3.39129e-07
1.05128e-06
-1.24065e-07
-8.13632e-07
2.92827e-07
-0.000276053
1.22102e-06
1.17743e-06
-1.3419e-07
-1.36644e-07
0.000273926
5.61539e-06
5.60852e-06
-0.00114822
-1.11962e-05
-1.10931e-05
0.000278281
0.000282027
0.000280852
0.000280852
4.59674e-06
6.80818e-06
7.22925e-06
4.60121e-06
6.80913e-06
7.23238e-06
-0.000281952
5.22453e-06
-5.60541e-06
5.60558e-06
-3.31642e-06
0.000280044
-0.000281928
-5.60774e-06
5.2301e-06
-3.32453e-06
5.60275e-06
0.000280027
-0.000277114
-5.2215e-06
-5.23259e-06
5.80288e-06
5.79063e-06
0.000275974
-1.36466e-06
-1.32687e-06
0.000275977
-0.000273846
2.76214e-07
2.84118e-07
0.00114301
-1.21921e-08
1.35609e-08
-1.35566e-06
3.05392e-07
-3.11442e-07
-9.76236e-07
2.80766e-07
-2.92101e-07
9.76589e-07
1.3704e-06
0.00114347
-5.90707e-09
-0.00114347
1.35922e-08
-1.36131e-06
3.08284e-07
-3.14237e-07
-9.81916e-07
2.83626e-07
-2.95017e-07
9.8248e-07
-1.32963e-06
0.000276009
-0.000273869
2.79035e-07
2.81296e-07
0.00114412
2.62423e-10
7.4156e-09
-1.31768e-06
3.02955e-07
-3.08434e-07
-9.78865e-07
2.83859e-07
-2.94839e-07
9.79747e-07
1.36485e-06
0.00114313
-6.11072e-09
1.34568e-08
-1.35563e-06
3.0836e-07
-3.14185e-07
-9.79063e-07
2.83666e-07
-2.94888e-07
9.79485e-07
-6.64507e-09
-0.00114385
1.27536e-08
-1.32039e-06
2.9998e-07
-3.05609e-07
-9.76119e-07
2.80965e-07
9.7687e-07
-2.92022e-07
1.35904e-06
0.00114292
-6.24676e-09
-0.00114292
1.34371e-08
-1.35004e-06
3.0253e-07
-3.08506e-07
-9.79019e-07
2.8075e-07
-2.92082e-07
9.7939e-07
-1.32391e-06
0.000275955
-0.000273827
2.76458e-07
2.83919e-07
-6.39223e-09
1.28987e-08
-1.31478e-06
3.00006e-07
-3.05581e-07
-9.75964e-07
2.83723e-07
9.76625e-07
-2.9475e-07
1.32399e-06
0.00114402
1.75076e-10
-0.00114403
1.82341e-08
-1.3149e-06
3.00006e-07
-3.05609e-07
-9.76092e-07
2.83831e-07
-2.94798e-07
9.77042e-07
-0.000273841
2.78671e-07
2.84088e-07
1.35559e-06
1.31762e-06
-2.6708e-07
-2.75035e-07
0.000273846
-1.36473e-06
-1.32688e-06
0.000275978
-0.000273847
2.76177e-07
2.84158e-07
1.35419e-08
0.00114301
-3.11411e-07
1.36473e-06
3.0541e-07
9.76578e-07
-2.92108e-07
-9.76221e-07
2.80766e-07
-1.36131e-06
-5.99226e-09
1.89579e-08
0.00114347
-3.14291e-07
1.37042e-06
3.08249e-07
9.82419e-07
-2.95048e-07
-9.81986e-07
2.8362e-07
0.00114301
-6.08344e-09
-0.00114301
1.34498e-08
-1.35558e-06
3.05452e-07
-3.11359e-07
-9.76186e-07
2.80814e-07
-2.92069e-07
9.76617e-07
1.3704e-06
0.00114347
-5.91111e-09
-0.00114347
1.35462e-08
-1.36134e-06
3.08281e-07
-3.14271e-07
-9.82018e-07
2.83642e-07
-2.9504e-07
9.82415e-07
-2.699e-07
-2.72248e-07
0.000273869
-1.32963e-06
0.000276009
-0.00027387
2.7903e-07
2.81311e-07
1.26806e-08
0.00114412
-3.08438e-07
1.32687e-06
3.02884e-07
9.79683e-07
-2.94836e-07
-9.78861e-07
2.83813e-07
-1.35558e-06
-6.26451e-09
1.34471e-08
0.00114313
-3.14187e-07
1.36484e-06
3.08307e-07
9.79398e-07
-2.94875e-07
-9.78986e-07
2.83649e-07
0.00114413
-6.72248e-09
-0.00114413
1.28428e-08
-1.31764e-06
3.02889e-07
-3.08479e-07
-9.78867e-07
2.83862e-07
-2.94843e-07
9.79739e-07
1.36475e-06
0.00114313
-6.00662e-09
-0.00114313
1.36167e-08
-1.35571e-06
3.0827e-07
-3.1425e-07
-9.79013e-07
2.8366e-07
-2.9489e-07
9.794e-07
4.72264e-10
1.34786e-08
0.00114291
-3.08541e-07
1.35905e-06
3.02526e-07
9.76594e-07
-2.92117e-07
2.80743e-07
-9.79059e-07
-6.60542e-09
-0.00114385
1.29505e-08
-1.32038e-06
2.99979e-07
-3.05612e-07
-9.76132e-07
2.81035e-07
9.76869e-07
-2.91988e-07
1.35905e-06
0.00114291
-6.02134e-09
-0.00114291
1.35794e-08
-1.35005e-06
3.02553e-07
-3.08502e-07
-9.76261e-07
2.80797e-07
-2.92084e-07
9.7664e-07
-2.67279e-07
-2.74773e-07
0.000273827
-1.32393e-06
0.000275956
-0.000273828
2.76406e-07
2.83844e-07
-6.74273e-09
1.29378e-08
0.00114402
-3.05676e-07
1.32399e-06
2.99977e-07
9.76988e-07
-2.94831e-07
2.83829e-07
-9.76194e-07
-6.47474e-09
-0.00114348
1.30284e-08
-1.31476e-06
2.9999e-07
-3.05614e-07
-9.75969e-07
2.83745e-07
9.76659e-07
-2.94766e-07
1.324e-06
0.00114402
-6.53073e-09
-0.00114402
1.30156e-08
-1.31493e-06
2.9999e-07
-3.05669e-07
-9.76202e-07
2.83868e-07
-2.94818e-07
9.7701e-07
-0.000273841
2.78667e-07
2.84098e-07
1.35555e-06
1.31762e-06
-2.67092e-07
-2.74969e-07
0.000273847
-1.3647e-06
-1.32685e-06
0.000275979
-0.000273848
2.76151e-07
2.84131e-07
1.33817e-08
0.00114301
-3.11338e-07
1.36475e-06
3.05458e-07
9.76547e-07
-2.92059e-07
-9.76209e-07
2.80828e-07
-1.3613e-06
-5.95558e-09
1.35089e-08
0.00114347
-3.1425e-07
1.37044e-06
3.08287e-07
9.824e-07
-2.95028e-07
-9.82007e-07
2.8365e-07
0.00114301
-6.01542e-09
-0.00114301
1.3462e-08
-1.35557e-06
3.05426e-07
-3.11362e-07
-9.7624e-07
2.80844e-07
-2.92012e-07
9.76531e-07
1.3704e-06
0.00114347
-5.98906e-09
-0.00114347
1.35173e-08
-1.3613e-06
3.08283e-07
-3.1424e-07
-9.81999e-07
2.83653e-07
-2.95012e-07
9.82397e-07
-2.69893e-07
-2.72213e-07
0.00027387
-1.32961e-06
0.00027601
-0.00027387
2.7902e-07
2.81317e-07
1.28159e-08
0.00114413
-3.08456e-07
1.3269e-06
3.02896e-07
9.79711e-07
-2.94816e-07
-9.78851e-07
2.83888e-07
-1.35567e-06
-5.98398e-09
1.35667e-08
0.00114313
-3.14233e-07
1.36479e-06
3.08279e-07
9.79345e-07
-2.94877e-07
-9.79028e-07
2.83678e-07
0.00114413
-6.59796e-09
-0.00114413
1.28665e-08
-1.31763e-06
3.02865e-07
-3.08468e-07
-9.78889e-07
2.839e-07
-2.94769e-07
9.79663e-07
1.36477e-06
0.00114313
-5.94261e-09
-0.00114313
1.34901e-08
-1.35566e-06
3.08312e-07
-3.14187e-07
-9.7906e-07
2.83696e-07
-2.94826e-07
9.79318e-07
-6.06045e-09
1.35409e-08
0.00114291
-3.0848e-07
1.35906e-06
3.02579e-07
9.76619e-07
-2.92063e-07
2.80817e-07
-9.76242e-07
-6.57097e-09
-0.00114385
1.29526e-08
-1.32037e-06
2.99967e-07
-3.05604e-07
-9.76158e-07
2.81074e-07
9.76798e-07
-2.91925e-07
1.35907e-06
0.00114292
-6.00189e-09
-0.00114292
1.34863e-08
-1.35e-06
3.0258e-07
-3.08442e-07
-9.76291e-07
2.80832e-07
-2.92018e-07
9.76554e-07
-2.673e-07
-2.74806e-07
0.000273828
-1.32392e-06
0.000275957
-0.000273828
2.76397e-07
2.83877e-07
-6.49534e-09
1.29553e-08
0.00114402
-3.05641e-07
1.32403e-06
3.00023e-07
9.7697e-07
-2.94796e-07
2.83891e-07
-9.76202e-07
-6.56308e-09
-0.00114348
1.29682e-08
-1.31473e-06
3.00016e-07
-3.05556e-07
-9.75981e-07
2.83814e-07
9.76589e-07
-2.94671e-07
1.32402e-06
0.00114403
-6.63251e-09
-0.00114403
1.29364e-08
-1.31488e-06
3.00012e-07
-3.05611e-07
-9.76215e-07
2.83906e-07
-2.94747e-07
9.76957e-07
-0.000273842
2.78682e-07
2.84119e-07
1.35558e-06
1.31765e-06
-2.67117e-07
-2.74991e-07
0.000273848
-1.36471e-06
-1.32684e-06
0.000275979
-0.000273848
2.76145e-07
2.84144e-07
1.34565e-08
0.00114302
-3.11344e-07
1.3647e-06
3.05437e-07
9.76544e-07
-2.92011e-07
-9.76205e-07
2.80836e-07
-1.3613e-06
-6.00844e-09
1.34846e-08
0.00114347
-3.14223e-07
1.37042e-06
3.08288e-07
9.82384e-07
-2.95e-07
-9.81987e-07
2.83661e-07
0.00114302
-6.12009e-09
-0.00114302
1.3443e-08
-1.35555e-06
3.05431e-07
-3.11336e-07
-9.76143e-07
2.80821e-07
-2.92025e-07
9.76595e-07
1.3704e-06
0.00114347
-5.94318e-09
-0.00114347
1.34792e-08
-1.36128e-06
3.08268e-07
-3.14233e-07
-9.81989e-07
2.83661e-07
-2.94989e-07
9.8238e-07
-2.69887e-07
-2.72207e-07
0.00027387
-1.32962e-06
0.00027601
-0.000273871
2.79037e-07
2.81314e-07
1.28639e-08
0.00114413
-3.08452e-07
1.32684e-06
3.02875e-07
9.79657e-07
-2.94769e-07
-9.78868e-07
2.83893e-07
-1.35565e-06
-5.99546e-09
1.3451e-08
0.00114313
-3.14168e-07
1.36478e-06
3.08318e-07
9.79331e-07
-2.94819e-07
-9.79026e-07
2.83693e-07
0.00114413
-6.67538e-09
-0.00114413
1.28726e-08
-1.31763e-06
3.02867e-07
-3.08445e-07
-9.78841e-07
2.83886e-07
-2.94765e-07
9.79699e-07
1.36479e-06
0.00114313
-6.03165e-09
-0.00114313
1.33852e-08
-1.35561e-06
3.08322e-07
-3.14156e-07
-9.78985e-07
2.83665e-07
-2.94845e-07
9.79367e-07
-6.0386e-09
1.3469e-08
0.00114292
-3.08434e-07
1.35908e-06
3.02594e-07
9.76558e-07
-2.92017e-07
2.80825e-07
-9.7627e-07
-6.68242e-09
-0.00114385
1.29536e-08
-1.32034e-06
2.99955e-07
-3.05591e-07
-9.76092e-07
2.81059e-07
9.76832e-07
-2.9193e-07
1.35908e-06
0.00114292
-6.0267e-09
-0.00114292
1.34224e-08
-1.34998e-06
3.02597e-07
-3.08405e-07
-9.76225e-07
2.80807e-07
-2.92028e-07
9.76591e-07
-2.67299e-07
-2.7477e-07
0.000273828
-1.32393e-06
0.000275957
-0.000273829
2.76402e-07
2.83905e-07
-6.67646e-09
1.2923e-08
0.00114403
-3.0561e-07
1.32402e-06
3.00018e-07
9.76975e-07
-2.94738e-07
2.8391e-07
-9.76175e-07
-6.80705e-09
-0.00114349
1.29108e-08
-1.3147e-06
3.00009e-07
-3.05539e-07
-9.75865e-07
2.83837e-07
9.76688e-07
-2.94632e-07
1.32398e-06
0.00114403
-6.71003e-09
-0.00114403
1.29366e-08
-1.3149e-06
2.99987e-07
-3.05614e-07
-9.76117e-07
2.83931e-07
-2.94709e-07
9.77016e-07
-0.000273842
2.78654e-07
2.84141e-07
1.35556e-06
1.31764e-06
-2.67102e-07
-2.74957e-07
0.000273848
-1.3647e-06
-1.32683e-06
0.00027598
-0.000273849
2.76159e-07
2.84147e-07
1.33947e-08
0.00114302
-3.11305e-07
1.36471e-06
3.05453e-07
9.76576e-07
-2.92007e-07
-9.76139e-07
2.80831e-07
-1.36129e-06
-5.97871e-09
1.34498e-08
0.00114347
-3.1421e-07
1.3704e-06
3.08282e-07
9.82376e-07
-2.94968e-07
-9.81967e-07
2.83677e-07
0.00114302
-6.20112e-09
-0.00114302
1.34194e-08
-1.35553e-06
3.05436e-07
-3.11299e-07
-9.76104e-07
2.80845e-07
-2.91978e-07
9.76619e-07
1.37039e-06
0.00114347
-5.97207e-09
-0.00114347
1.3481e-08
-1.36127e-06
3.08269e-07
-3.14206e-07
-9.81962e-07
2.8368e-07
-2.94949e-07
9.82377e-07
-2.69858e-07
-2.72196e-07
0.000273871
-1.32963e-06
0.000276011
-0.000273871
2.79056e-07
2.81313e-07
1.28333e-08
0.00114413
-3.08418e-07
1.32683e-06
3.02885e-07
9.79723e-07
-2.94754e-07
-9.78788e-07
2.83891e-07
-1.35562e-06
-6.08388e-09
1.33698e-08
0.00114313
-3.14125e-07
1.36478e-06
3.0834e-07
9.79359e-07
-2.94822e-07
-9.78967e-07
2.83683e-07
0.00114413
-6.74168e-09
-0.00114413
1.28265e-08
-1.31761e-06
3.02879e-07
-3.08402e-07
-9.78792e-07
2.83909e-07
-2.94726e-07
9.7972e-07
1.36477e-06
0.00114313
-6.10628e-09
-0.00114313
1.34188e-08
-1.35561e-06
3.08297e-07
-3.14142e-07
-9.78956e-07
2.83684e-07
-2.94805e-07
9.79378e-07
-6.07374e-09
1.33802e-08
0.00114292
-3.08384e-07
1.35908e-06
3.02618e-07
9.76578e-07
-2.92014e-07
2.80818e-07
-9.76212e-07
-6.71251e-09
-0.00114385
1.29148e-08
-1.32031e-06
2.99964e-07
-3.05556e-07
-9.76065e-07
2.81077e-07
9.76835e-07
-2.91893e-07
1.35906e-06
0.00114292
-6.10216e-09
-0.00114292
1.33983e-08
-1.34997e-06
3.02589e-07
-3.08381e-07
-9.7618e-07
2.80843e-07
-2.91973e-07
9.76612e-07
-2.6728e-07
-2.74726e-07
0.000273829
-1.32392e-06
0.000275958
-0.000273829
2.76414e-07
2.83881e-07
-6.69904e-09
1.28832e-08
0.00114403
-3.056e-07
1.32398e-06
3.00004e-07
9.77011e-07
-2.94688e-07
2.83943e-07
-9.761e-07
-6.80487e-09
-0.00114349
1.29203e-08
-1.31468e-06
2.99991e-07
-3.05521e-07
-9.75807e-07
2.83854e-07
9.76709e-07
-2.9458e-07
1.32397e-06
0.00114403
-6.70102e-09
-0.00114403
1.28886e-08
-1.31489e-06
2.99984e-07
-3.0559e-07
-9.76074e-07
2.83944e-07
-2.94669e-07
9.77031e-07
-0.000273843
2.78663e-07
2.84133e-07
1.35555e-06
1.31763e-06
-2.6707e-07
-2.74944e-07
0.000273849
-1.36467e-06
-1.32682e-06
0.00027598
-0.000273849
2.76166e-07
2.84134e-07
1.34098e-08
0.00114302
-3.11279e-07
1.36468e-06
3.05445e-07
9.76619e-07
-2.91955e-07
-9.76083e-07
2.80863e-07
-1.36129e-06
-6.03079e-09
1.34573e-08
0.00114347
-3.14184e-07
1.37038e-06
3.08285e-07
9.82388e-07
-2.94919e-07
-9.81928e-07
2.83703e-07
0.00114302
-6.27949e-09
-0.00114302
1.34829e-08
-1.35554e-06
3.05398e-07
-3.11307e-07
-9.76041e-07
2.80893e-07
-2.91911e-07
9.76662e-07
1.3704e-06
0.00114347
-6.04789e-09
-0.00114347
1.34622e-08
-1.36125e-06
3.08274e-07
-3.14177e-07
-9.81906e-07
2.83706e-07
-2.94898e-07
9.82402e-07
-2.69827e-07
-2.72181e-07
0.000273871
-1.32964e-06
0.000276011
-0.000273871
2.79073e-07
2.81332e-07
1.27979e-08
0.00114413
-3.0838e-07
1.32682e-06
3.02891e-07
9.79737e-07
-2.94709e-07
-9.78755e-07
2.83917e-07
-1.35564e-06
-6.12729e-09
1.34325e-08
0.00114313
-3.14138e-07
1.36474e-06
3.08295e-07
9.79381e-07
-2.94783e-07
-9.78931e-07
2.83702e-07
0.00114413
-6.74119e-09
-0.00114413
1.28451e-08
-1.3176e-06
3.02861e-07
-3.08392e-07
-9.78748e-07
2.83928e-07
-2.94687e-07
9.79742e-07
1.36474e-06
0.00114313
-6.08846e-09
-0.00114313
1.34909e-08
-1.35563e-06
3.08259e-07
-3.14162e-07
-9.78922e-07
2.83706e-07
-2.94768e-07
9.79394e-07
-6.11809e-09
1.34219e-08
0.00114292
-3.08376e-07
1.35904e-06
3.02597e-07
9.76606e-07
-2.91957e-07
2.80852e-07
-9.7616e-07
-6.78523e-09
-0.00114385
1.28599e-08
-1.32028e-06
2.99969e-07
-3.05524e-07
-9.76017e-07
2.81104e-07
9.76859e-07
-2.91845e-07
1.35903e-06
0.00114292
-6.11347e-09
-0.00114292
1.34691e-08
-1.34998e-06
3.02565e-07
-3.08388e-07
-9.76143e-07
2.80855e-07
-2.9194e-07
9.76624e-07
-2.67255e-07
-2.74748e-07
0.000273829
-1.32392e-06
0.000275958
-0.000273829
2.76411e-07
2.83868e-07
-6.66999e-09
1.28984e-08
0.00114403
-3.05582e-07
1.32396e-06
2.99993e-07
9.77028e-07
-2.94654e-07
2.83953e-07
-9.76054e-07
-6.81959e-09
-0.00114349
1.29789e-08
-1.31468e-06
2.9998e-07
-3.05516e-07
-9.75801e-07
2.83835e-07
9.767e-07
-2.9459e-07
1.32396e-06
0.00114403
-6.66017e-09
-0.00114403
1.29224e-08
-1.31489e-06
2.99966e-07
-3.05592e-07
-9.76054e-07
2.83943e-07
-2.94648e-07
9.77021e-07
-0.000273843
2.78664e-07
2.84121e-07
1.35556e-06
1.31762e-06
-2.67049e-07
-2.74938e-07
0.000273849
-1.36465e-06
-1.3268e-06
0.00027598
-0.000273849
2.7616e-07
2.84136e-07
1.34709e-08
0.00114302
-3.1129e-07
1.36465e-06
3.0541e-07
9.76657e-07
-2.9189e-07
-9.76023e-07
2.80907e-07
-1.36126e-06
-6.08204e-09
1.34342e-08
0.00114347
-3.14159e-07
1.37039e-06
3.08287e-07
9.82407e-07
-2.94877e-07
-9.81878e-07
2.83722e-07
0.00114302
-6.30607e-09
-0.00114302
1.35184e-08
-1.35554e-06
3.05376e-07
-3.11306e-07
-9.76002e-07
2.80913e-07
-2.91868e-07
9.76683e-07
1.3704e-06
0.00114347
-6.06977e-09
-0.00114347
1.34262e-08
-1.36124e-06
3.08271e-07
-3.14157e-07
-9.81873e-07
2.83712e-07
-2.9487e-07
9.82406e-07
-2.69799e-07
-2.72149e-07
0.000273872
-1.32963e-06
0.000276011
-0.000273871
2.79075e-07
2.81335e-07
1.28188e-08
0.00114413
-3.08371e-07
1.3268e-06
3.02873e-07
9.79748e-07
-2.94672e-07
-9.78722e-07
2.83937e-07
-1.35565e-06
-6.12041e-09
1.34798e-08
0.00114313
-3.14145e-07
1.36472e-06
3.08274e-07
9.79396e-07
-2.94745e-07
-9.78901e-07
2.83724e-07
0.00114413
-6.75024e-09
-0.00114413
1.28503e-08
-1.31761e-06
3.0284e-07
-3.08387e-07
-9.78714e-07
2.83946e-07
-2.9465e-07
9.79761e-07
1.36473e-06
0.00114313
-6.07568e-09
-0.00114313
1.349e-08
-1.35562e-06
3.08256e-07
-3.1414e-07
-9.78898e-07
2.8371e-07
-2.94744e-07
9.79403e-07
-6.17676e-09
1.34509e-08
0.00114292
-3.0837e-07
1.35902e-06
3.02588e-07
9.76625e-07
-2.91924e-07
2.80868e-07
-9.76121e-07
-6.8453e-09
-0.00114385
1.29178e-08
-1.32029e-06
2.99953e-07
-3.05521e-07
-9.75969e-07
2.81123e-07
9.76884e-07
-2.91806e-07
1.35903e-06
0.00114292
-6.25288e-09
-0.00114292
1.34429e-08
-1.34996e-06
3.02565e-07
-3.08367e-07
-9.76087e-07
2.80899e-07
-2.91881e-07
9.76662e-07
-2.67241e-07
-2.74739e-07
0.000273829
-1.3239e-06
0.000275958
-0.000273829
2.76408e-07
2.83878e-07
-6.62917e-09
1.28648e-08
0.00114403
-3.05567e-07
1.32396e-06
3e-07
9.77004e-07
-2.94647e-07
2.83942e-07
-9.76054e-07
-6.86702e-09
-0.00114349
1.29681e-08
-1.31468e-06
2.99973e-07
-3.05494e-07
-9.75767e-07
2.83866e-07
9.76727e-07
-2.9454e-07
1.32399e-06
0.00114403
-6.66179e-09
-0.00114403
1.28165e-08
-1.31484e-06
2.99995e-07
-3.05542e-07
-9.76055e-07
2.83943e-07
-2.94636e-07
9.77014e-07
-0.000273843
2.787e-07
2.84124e-07
1.35555e-06
1.31761e-06
-2.67037e-07
-2.74919e-07
0.000273849
-1.36465e-06
-1.32681e-06
0.00027598
-0.000273848
2.76179e-07
2.84148e-07
1.34833e-08
0.00114302
-3.11287e-07
1.36464e-06
3.05392e-07
9.76677e-07
-2.91857e-07
-9.75986e-07
2.80921e-07
-1.36124e-06
-6.1118e-09
1.33906e-08
0.00114347
-3.14143e-07
1.3704e-06
3.08285e-07
9.82412e-07
-2.94851e-07
-9.81848e-07
2.83731e-07
0.00114302
-6.37693e-09
-0.00114302
1.35197e-08
-1.35553e-06
3.05384e-07
-3.1128e-07
-9.75957e-07
2.80939e-07
-2.91829e-07
9.76711e-07
1.37041e-06
0.00114347
-6.09617e-09
-0.00114347
1.33873e-08
-1.36122e-06
3.083e-07
-3.14114e-07
-9.81827e-07
2.83735e-07
-2.94827e-07
9.82425e-07
-2.69778e-07
-2.72131e-07
0.000273871
-1.32963e-06
0.000276011
-0.000273871
2.79095e-07
2.81365e-07
1.28237e-08
0.00114413
-3.08371e-07
1.32679e-06
3.02851e-07
9.79771e-07
-2.94636e-07
-9.78684e-07
2.83958e-07
-1.35563e-06
-6.11865e-09
1.34703e-08
0.00114313
-3.1413e-07
1.36471e-06
3.08266e-07
9.79412e-07
-2.94721e-07
-9.78871e-07
2.83733e-07
0.00114413
-6.79085e-09
-0.00114413
1.28324e-08
-1.31759e-06
3.02853e-07
-3.08355e-07
-9.78673e-07
2.83966e-07
-2.94612e-07
9.79784e-07
1.36472e-06
0.00114313
-6.08559e-09
-0.00114313
1.34994e-08
-1.35561e-06
3.0825e-07
-3.14127e-07
-9.7886e-07
2.83728e-07
-2.94711e-07
9.79422e-07
-6.29651e-09
1.34212e-08
0.00114292
-3.08352e-07
1.35901e-06
3.02587e-07
9.76663e-07
-2.91864e-07
2.8091e-07
-9.76062e-07