/*--------------------------------*- C++ -*----------------------------------*\
| =========                 |                                                 |
| \\      /  F ield         | OpenFOAM: The Open Source CFD Toolbox           |
|  \\    /   O peration     | Version:  v1912                                 |
|   \\  /    A nd           | Website:  www.openfoam.com                      |
|    \\/     M anipulation  |                                                 |
\*---------------------------------------------------------------------------*/
FoamFile
{
    version     2.0;
    format      ascii;
    class       volVectorField;
    location    "120";
    object      U;
}
// * * * * * * * * * * * * * * * * * * * * * * * * * * * * * * * * * * * * * //

dimensions      [0 1 -1 0 0 0 0];


internalField   nonuniform List<vector> 
57062
(
(-2.60856e-06 -2.60503e-06 0.110322)
(-1.64979e-06 3.2737e-06 0.108596)
(3.27074e-06 -1.63722e-06 0.108596)
(-7.0559e-05 -7.05862e-05 0.106415)
(-2.60228e-06 -2.59187e-06 0.110322)
(-1.64461e-06 3.27727e-06 0.108596)
(3.26883e-06 -1.65597e-06 0.108596)
(-7.05569e-05 -7.05774e-05 0.106416)
(-2.60325e-06 -2.59334e-06 0.110322)
(-1.65778e-06 3.27228e-06 0.108597)
(3.26193e-06 -1.66411e-06 0.108596)
(-7.05486e-05 -7.05635e-05 0.106416)
(-2.60898e-06 -2.5948e-06 0.110322)
(-1.64784e-06 3.26916e-06 0.108597)
(3.25197e-06 -1.63864e-06 0.108596)
(-7.05567e-05 -7.05526e-05 0.106416)
(-2.61118e-06 -2.6003e-06 0.110322)
(-1.64676e-06 3.26411e-06 0.108597)
(3.26294e-06 -1.64771e-06 0.108596)
(-7.05547e-05 -7.05563e-05 0.106416)
(-2.60977e-06 -2.60322e-06 0.110322)
(-1.63957e-06 3.26245e-06 0.108597)
(3.26377e-06 -1.64084e-06 0.108596)
(-7.05503e-05 -7.05595e-05 0.106416)
(-2.61028e-06 -2.60508e-06 0.110322)
(-1.63811e-06 3.27035e-06 0.108597)
(3.26729e-06 -1.63127e-06 0.108596)
(-7.05344e-05 -7.05526e-05 0.106416)
(-2.61288e-06 -2.6095e-06 0.110322)
(-1.62352e-06 3.26429e-06 0.108597)
(3.27346e-06 -1.62809e-06 0.108596)
(-7.05281e-05 -7.05429e-05 0.106416)
(-2.61351e-06 -2.6051e-06 0.110322)
(-1.61394e-06 3.26719e-06 0.108597)
(3.27003e-06 -1.6283e-06 0.108596)
(-7.05098e-05 -7.05345e-05 0.106416)
(-2.61748e-06 -2.61035e-06 0.110322)
(-1.61805e-06 3.26202e-06 0.108596)
(3.26283e-06 -1.62581e-06 0.108596)
(-7.05067e-05 -7.05292e-05 0.106416)
(-2.63412e-06 -2.61777e-06 0.110322)
(-1.6337e-06 3.24895e-06 0.108596)
(3.25315e-06 -1.6112e-06 0.108596)
(-7.05112e-05 -7.05092e-05 0.106416)
(-2.6294e-06 -2.62695e-06 0.110322)
(-1.62412e-06 3.23892e-06 0.108596)
(3.23951e-06 -1.61601e-06 0.108596)
(-7.05032e-05 -7.05104e-05 0.106416)
(-2.60408e-06 -2.61428e-06 0.110322)
(-1.60309e-06 3.25496e-06 0.108596)
(3.25558e-06 -1.6289e-06 0.108595)
(-7.04745e-05 -7.0525e-05 0.106415)
(-2.60375e-06 -2.60666e-06 0.110322)
(-1.61064e-06 3.25561e-06 0.108596)
(3.26309e-06 -1.62818e-06 0.108595)
(-7.0476e-05 -7.0515e-05 0.106415)
(-2.61516e-06 -2.60503e-06 0.110322)
(-1.65513e-06 3.2598e-06 0.108596)
(3.25952e-06 -1.62886e-06 0.108595)
(-7.04938e-05 -7.04973e-05 0.106415)
(-2.6291e-06 -2.60285e-06 0.110322)
(-1.66113e-06 3.25984e-06 0.108596)
(3.24816e-06 -1.64156e-06 0.108595)
(-7.04814e-05 -7.04836e-05 0.106415)
(-2.616e-06 -2.58994e-06 0.110322)
(-1.65777e-06 3.26635e-06 0.108596)
(3.25653e-06 -1.65411e-06 0.108595)
(-7.04628e-05 -7.04656e-05 0.106415)
(-2.59055e-06 -2.56258e-06 0.110322)
(-1.68545e-06 3.29184e-06 0.108596)
(3.27479e-06 -1.68769e-06 0.108595)
(-7.04422e-05 -7.04465e-05 0.106415)
(-2.54136e-06 -2.52239e-06 0.110323)
(-1.75529e-06 3.34243e-06 0.108596)
(3.31914e-06 -1.74573e-06 0.108596)
(-7.04054e-05 -7.04103e-05 0.106415)
(-2.49187e-06 -2.4764e-06 0.110323)
(-1.85891e-06 3.394e-06 0.108596)
(3.38296e-06 -1.85898e-06 0.108596)
(-7.03338e-05 -7.03385e-05 0.106415)
(-2.45511e-06 -2.43852e-06 0.110324)
(-2.03308e-06 3.46795e-06 0.108597)
(3.45543e-06 -2.02789e-06 0.108597)
(-7.022e-05 -7.02247e-05 0.106415)
(-2.4265e-06 -2.40394e-06 0.110326)
(-2.30071e-06 3.60815e-06 0.108598)
(3.58678e-06 -2.27868e-06 0.108597)
(-7.00243e-05 -7.00191e-05 0.106416)
(-2.38637e-06 -2.37077e-06 0.110328)
(-2.77357e-06 3.84295e-06 0.1086)
(3.83654e-06 -2.75131e-06 0.108599)
(-6.96789e-05 -6.96717e-05 0.106417)
(-2.42514e-06 -2.41805e-06 0.11033)
(-3.52913e-06 4.22837e-06 0.108602)
(4.22663e-06 -3.5138e-06 0.108601)
(-6.9042e-05 -6.90644e-05 0.106419)
(-2.75165e-06 -2.76536e-06 0.110334)
(-4.58438e-06 4.80281e-06 0.108606)
(4.82757e-06 -4.60514e-06 0.108605)
(-6.77898e-05 -6.78479e-05 0.106424)
(-3.66098e-06 -3.66258e-06 0.110339)
(-6.20616e-06 5.76099e-06 0.108611)
(5.78457e-06 -6.22658e-06 0.108611)
(-6.55169e-05 -6.55652e-05 0.106433)
(-5.47442e-06 -5.45318e-06 0.110344)
(-8.86197e-06 7.41079e-06 0.108619)
(7.42543e-06 -8.85527e-06 0.108618)
(-6.1319e-05 -6.13145e-05 0.10645)
(-8.77031e-06 -8.73809e-06 0.110351)
(-1.32351e-05 1.03606e-05 0.10863)
(1.03418e-05 -1.31953e-05 0.108629)
(-5.31173e-05 -5.30618e-05 0.106481)
(-1.76449e-05 -1.75551e-05 0.110353)
(-1.65543e-05 1.41592e-05 0.108644)
(1.41307e-05 -1.65082e-05 0.108643)
(-3.45082e-05 -3.44563e-05 0.106534)
(-4.61901e-05 -4.60182e-05 0.110371)
(3.63332e-05 -1.81035e-05 0.108744)
(-1.82136e-05 3.63361e-05 0.108744)
(3.1828e-05 3.19187e-05 0.106805)
(-7.75816e-05 -7.75828e-05 0.106612)
(3.39156e-06 1.77741e-06 0.108595)
(-3.37608e-06 1.7414e-06 0.108595)
(7.76032e-05 -7.75688e-05 0.106613)
(1.66533e-06 3.23741e-06 0.108596)
(1.73614e-06 -3.35267e-06 0.108595)
(-1.64519e-06 3.27044e-06 0.108596)
(-1.71548e-06 -3.34148e-06 0.108595)
(-7.75703e-05 7.76539e-05 0.106612)
(3.26809e-06 -1.65972e-06 0.108596)
(-3.26026e-06 -1.63029e-06 0.108596)
(7.75491e-05 7.75665e-05 0.106612)
(7.05618e-05 7.0498e-05 0.106415)
(-7.76166e-05 -7.75793e-05 0.106612)
(3.37196e-06 1.75176e-06 0.108595)
(-3.3838e-06 1.73638e-06 0.108595)
(3.35284e-06 1.72951e-06 0.108595)
(-3.37748e-06 1.74736e-06 0.108595)
(-7.05364e-05 7.04824e-05 0.106415)
(7.76018e-05 -7.75732e-05 0.106613)
(1.64954e-06 3.24647e-06 0.108596)
(1.70515e-06 -3.34753e-06 0.108595)
(1.6431e-06 3.26333e-06 0.108596)
(1.72827e-06 -3.36198e-06 0.108595)
(-1.7106e-06 -3.34851e-06 0.108595)
(-1.64127e-06 3.28173e-06 0.108596)
(-1.71868e-06 -3.35029e-06 0.108595)
(7.04984e-05 -7.053e-05 0.106415)
(-7.75657e-05 7.76114e-05 0.106612)
(-3.27153e-06 -1.62259e-06 0.108596)
(3.27726e-06 -1.65662e-06 0.108596)
(-3.27679e-06 -1.64491e-06 0.108596)
(7.75475e-05 7.75745e-05 0.106612)
(7.05297e-05 7.05057e-05 0.106415)
(-7.76015e-05 -7.75684e-05 0.106613)
(3.34278e-06 1.74171e-06 0.108595)
(-3.37214e-06 1.74551e-06 0.108595)
(3.35054e-06 1.7468e-06 0.108595)
(-3.37422e-06 1.74826e-06 0.108595)
(-7.0533e-05 7.04796e-05 0.106416)
(7.76008e-05 -7.75628e-05 0.106613)
(1.6475e-06 3.25896e-06 0.108596)
(1.73898e-06 -3.35488e-06 0.108595)
(1.66697e-06 3.26885e-06 0.108596)
(1.74968e-06 -3.34258e-06 0.108595)
(-1.72469e-06 -3.34288e-06 0.108595)
(-1.66353e-06 3.27631e-06 0.108596)
(-1.73873e-06 -3.33536e-06 0.108595)
(7.05043e-05 -7.05651e-05 0.106415)
(-7.75588e-05 7.76136e-05 0.106612)
(-3.26493e-06 -1.65752e-06 0.108596)
(3.26562e-06 -1.66726e-06 0.108596)
(-3.26119e-06 -1.65434e-06 0.108596)
(7.75522e-05 7.75827e-05 0.106612)
(7.05424e-05 7.05155e-05 0.106416)
(-7.76058e-05 -7.75622e-05 0.106613)
(3.3476e-06 1.74233e-06 0.108595)
(-3.36922e-06 1.74528e-06 0.108595)
(3.35017e-06 1.72856e-06 0.108595)
(-3.36996e-06 1.75276e-06 0.108595)
(-7.05321e-05 7.04841e-05 0.106416)
(7.75999e-05 -7.75703e-05 0.106614)
(1.66856e-06 3.26558e-06 0.108596)
(1.74125e-06 -3.33773e-06 0.108595)
(1.65577e-06 3.26867e-06 0.108596)
(1.73611e-06 -3.33328e-06 0.108595)
(-1.73924e-06 -3.3321e-06 0.108595)
(-1.64941e-06 3.27539e-06 0.108597)
(-1.7261e-06 -3.32913e-06 0.108595)
(7.05064e-05 -7.05604e-05 0.106416)
(-7.75619e-05 7.76233e-05 0.106613)
(-3.25876e-06 -1.64853e-06 0.108596)
(3.26216e-06 -1.64265e-06 0.108596)
(-3.26339e-06 -1.63021e-06 0.108596)
(7.75322e-05 7.75822e-05 0.106613)
(7.05277e-05 7.05115e-05 0.106416)
(-7.76007e-05 -7.75604e-05 0.106613)
(3.34132e-06 1.73154e-06 0.108595)
(-3.36338e-06 1.74832e-06 0.108595)
(3.34826e-06 1.72136e-06 0.108595)
(-3.37018e-06 1.75502e-06 0.108595)
(-7.05285e-05 7.04719e-05 0.106416)
(7.75953e-05 -7.75741e-05 0.106614)
(1.6472e-06 3.26228e-06 0.108596)
(1.73229e-06 -3.32767e-06 0.108595)
(1.6497e-06 3.26804e-06 0.108596)
(1.73161e-06 -3.33678e-06 0.108595)
(-1.72877e-06 -3.32245e-06 0.108595)
(-1.65074e-06 3.27155e-06 0.108597)
(-1.71964e-06 -3.3264e-06 0.108595)
(7.05e-05 -7.05466e-05 0.106416)
(-7.75617e-05 7.76118e-05 0.106613)
(-3.25719e-06 -1.63162e-06 0.108596)
(3.26456e-06 -1.64991e-06 0.108596)
(-3.26244e-06 -1.62905e-06 0.108596)
(7.75266e-05 7.75735e-05 0.106613)
(7.05254e-05 7.05032e-05 0.106416)
(-7.75895e-05 -7.7557e-05 0.106613)
(3.34367e-06 1.7204e-06 0.108595)
(-3.36455e-06 1.74775e-06 0.108595)
(3.35763e-06 1.71173e-06 0.108595)
(-3.37016e-06 1.7506e-06 0.108595)
(-7.05252e-05 7.04616e-05 0.106416)
(7.76006e-05 -7.75785e-05 0.106614)
(1.647e-06 3.2628e-06 0.108596)
(1.72699e-06 -3.33584e-06 0.108595)
(1.64859e-06 3.27407e-06 0.108596)
(1.73178e-06 -3.34881e-06 0.108595)
(-1.7244e-06 -3.3274e-06 0.108595)
(-1.64601e-06 3.26851e-06 0.108597)
(-1.71861e-06 -3.3351e-06 0.108595)
(7.04903e-05 -7.05536e-05 0.106416)
(-7.75597e-05 7.76001e-05 0.106613)
(-3.26154e-06 -1.63268e-06 0.108596)
(3.27284e-06 -1.6427e-06 0.108596)
(-3.26619e-06 -1.63328e-06 0.108596)
(7.75242e-05 7.75638e-05 0.106613)
(7.05256e-05 7.0497e-05 0.106416)
(-7.75846e-05 -7.75505e-05 0.106613)
(3.35311e-06 1.7135e-06 0.108595)
(-3.36412e-06 1.74489e-06 0.108595)
(3.36397e-06 1.70905e-06 0.108595)
(-3.36894e-06 1.74765e-06 0.108595)
(-7.05113e-05 7.045e-05 0.106416)
(7.75989e-05 -7.75749e-05 0.106614)
(1.64825e-06 3.26832e-06 0.108596)
(1.72832e-06 -3.34477e-06 0.108595)
(1.64576e-06 3.27834e-06 0.108596)
(1.73449e-06 -3.3515e-06 0.108595)
(-1.71884e-06 -3.32957e-06 0.108595)
(-1.64244e-06 3.27753e-06 0.108597)
(-1.70644e-06 -3.33308e-06 0.108595)
(7.0483e-05 -7.05532e-05 0.106416)
(-7.75538e-05 7.75988e-05 0.106613)
(-3.25637e-06 -1.63711e-06 0.108596)
(3.27367e-06 -1.6381e-06 0.108596)
(-3.25403e-06 -1.63342e-06 0.108596)
(7.75352e-05 7.75634e-05 0.106613)
(7.05185e-05 7.04913e-05 0.106416)
(-7.75856e-05 -7.75541e-05 0.106613)
(3.35641e-06 1.70963e-06 0.108595)
(-3.36231e-06 1.742e-06 0.108595)
(3.36365e-06 1.70173e-06 0.108595)
(-3.36349e-06 1.74526e-06 0.108595)
(-7.05013e-05 7.04403e-05 0.106416)
(7.76053e-05 -7.75776e-05 0.106614)
(1.64319e-06 3.27246e-06 0.108596)
(1.72789e-06 -3.34665e-06 0.108595)
(1.64194e-06 3.27733e-06 0.108596)
(1.73177e-06 -3.35472e-06 0.108595)
(-1.70821e-06 -3.32761e-06 0.108595)
(-1.63073e-06 3.27074e-06 0.108597)
(-1.70381e-06 -3.33457e-06 0.108595)
(7.04789e-05 -7.05455e-05 0.106416)
(-7.75504e-05 7.7596e-05 0.106613)
(-3.24883e-06 -1.63261e-06 0.108596)
(3.28105e-06 -1.6309e-06 0.108596)
(-3.25834e-06 -1.62891e-06 0.108596)
(7.7533e-05 7.75655e-05 0.106613)
(7.05053e-05 7.0477e-05 0.106416)
(-7.75848e-05 -7.75418e-05 0.106613)
(3.35662e-06 1.70295e-06 0.108595)
(-3.35486e-06 1.73944e-06 0.108595)
(3.36521e-06 1.70822e-06 0.108595)
(-3.35507e-06 1.7478e-06 0.108595)
(-7.04825e-05 7.04284e-05 0.106416)
(7.76152e-05 -7.75644e-05 0.106614)
(1.63981e-06 3.27226e-06 0.108596)
(1.72433e-06 -3.34855e-06 0.108595)
(1.63788e-06 3.28575e-06 0.108596)
(1.72569e-06 -3.35702e-06 0.108595)
(-1.70645e-06 -3.32889e-06 0.108595)
(-1.62095e-06 3.27505e-06 0.108596)
(-1.69413e-06 -3.33241e-06 0.108595)
(7.04713e-05 -7.05376e-05 0.106416)
(-7.75539e-05 7.7589e-05 0.106613)
(-3.24898e-06 -1.62906e-06 0.108596)
(3.27807e-06 -1.63027e-06 0.108596)
(-3.24876e-06 -1.62601e-06 0.108596)
(7.75456e-05 7.75686e-05 0.106613)
(7.04989e-05 7.04832e-05 0.106416)
(-7.75865e-05 -7.75446e-05 0.106613)
(3.35792e-06 1.71127e-06 0.108595)
(-3.34685e-06 1.74308e-06 0.108595)
(3.36098e-06 1.70617e-06 0.108595)
(-3.3598e-06 1.7482e-06 0.108595)
(-7.04698e-05 7.04379e-05 0.106416)
(7.76119e-05 -7.75716e-05 0.106614)
(1.63323e-06 3.27872e-06 0.108596)
(1.71849e-06 -3.35077e-06 0.108595)
(1.63868e-06 3.27998e-06 0.108596)
(1.72935e-06 -3.35635e-06 0.108594)
(-1.69478e-06 -3.32575e-06 0.108595)
(-1.62061e-06 3.27291e-06 0.108596)
(-1.69673e-06 -3.33396e-06 0.108595)
(7.04593e-05 -7.05349e-05 0.106416)
(-7.75535e-05 7.7593e-05 0.106612)
(-3.23779e-06 -1.62708e-06 0.108596)
(3.27245e-06 -1.63054e-06 0.108596)
(-3.24737e-06 -1.6257e-06 0.108596)
(7.75442e-05 7.75666e-05 0.106613)
(7.04929e-05 7.04725e-05 0.106416)
(-7.75892e-05 -7.75484e-05 0.106613)
(3.34949e-06 1.7042e-06 0.108595)
(-3.35364e-06 1.73834e-06 0.108595)
(3.35084e-06 1.70067e-06 0.108595)
(-3.36938e-06 1.73395e-06 0.108595)
(-7.04734e-05 7.04259e-05 0.106416)
(7.76006e-05 -7.75848e-05 0.106613)
(1.63275e-06 3.26733e-06 0.108596)
(1.71913e-06 -3.34515e-06 0.108595)
(1.62848e-06 3.27292e-06 0.108596)
(1.72185e-06 -3.34858e-06 0.108594)
(-1.69634e-06 -3.32344e-06 0.108595)
(-1.63867e-06 3.26523e-06 0.108596)
(-1.69978e-06 -3.3207e-06 0.108595)
(7.04553e-05 -7.05238e-05 0.106416)
(-7.75544e-05 7.76028e-05 0.106612)
(-3.24117e-06 -1.62773e-06 0.108596)
(3.26704e-06 -1.61779e-06 0.108596)
(-3.261e-06 -1.61438e-06 0.108596)
(7.7534e-05 7.75796e-05 0.106612)
(7.04863e-05 7.04658e-05 0.106416)
(-7.75895e-05 -7.75584e-05 0.106612)
(3.33514e-06 1.69549e-06 0.108595)
(-3.35816e-06 1.71951e-06 0.108595)
(3.34401e-06 1.68632e-06 0.108595)
(-3.36385e-06 1.72514e-06 0.108595)
(-7.04783e-05 7.0408e-05 0.106416)
(7.7602e-05 -7.75901e-05 0.106613)
(1.62019e-06 3.25922e-06 0.108596)
(1.70972e-06 -3.33885e-06 0.108594)
(1.63159e-06 3.2701e-06 0.108595)
(1.71106e-06 -3.34702e-06 0.108594)
(-1.70411e-06 -3.31101e-06 0.108595)
(-1.63636e-06 3.25357e-06 0.108596)
(-1.70677e-06 -3.32457e-06 0.108595)
(7.0449e-05 -7.05111e-05 0.106416)
(-7.75681e-05 7.76007e-05 0.106612)
(-3.25585e-06 -1.61369e-06 0.108596)
(3.25287e-06 -1.61818e-06 0.108595)
(-3.26325e-06 -1.61763e-06 0.108595)
(7.75314e-05 7.75765e-05 0.106612)
(7.04846e-05 7.04504e-05 0.106415)
(-7.75706e-05 -7.75517e-05 0.106612)
(3.33382e-06 1.68281e-06 0.108595)
(-3.34696e-06 1.72104e-06 0.108595)
(3.37044e-06 1.69679e-06 0.108595)
(-3.34721e-06 1.74385e-06 0.108594)
(-7.04685e-05 7.03982e-05 0.106416)
(7.76255e-05 -7.75749e-05 0.106613)
(1.63466e-06 3.25836e-06 0.108596)
(1.70429e-06 -3.33499e-06 0.108594)
(1.65559e-06 3.27627e-06 0.108595)
(1.72808e-06 -3.34953e-06 0.108594)
(-1.70374e-06 -3.31712e-06 0.108595)
(-1.61691e-06 3.26549e-06 0.108596)
(-1.68779e-06 -3.33925e-06 0.108594)
(7.04323e-05 -7.05112e-05 0.106415)
(-7.75554e-05 7.75922e-05 0.106612)
(-3.24392e-06 -1.62348e-06 0.108596)
(3.26664e-06 -1.63239e-06 0.108595)
(-3.23755e-06 -1.63907e-06 0.108595)
(7.75552e-05 7.75544e-05 0.106612)
(7.04946e-05 7.04532e-05 0.106415)
(-7.75657e-05 -7.75426e-05 0.106612)
(3.35982e-06 1.70001e-06 0.108595)
(-3.33036e-06 1.7402e-06 0.108595)
(3.3717e-06 1.7036e-06 0.108594)
(-3.34544e-06 1.74494e-06 0.108594)
(-7.04372e-05 7.04074e-05 0.106416)
(7.76207e-05 -7.75689e-05 0.106613)
(1.64997e-06 3.26182e-06 0.108595)
(1.72462e-06 -3.3373e-06 0.108594)
(1.64816e-06 3.2765e-06 0.108595)
(1.733e-06 -3.35179e-06 0.108594)
(-1.68389e-06 -3.3301e-06 0.108595)
(-1.60357e-06 3.26851e-06 0.108596)
(-1.67791e-06 -3.34173e-06 0.108594)
(7.04405e-05 -7.05127e-05 0.106415)
(-7.75419e-05 7.75859e-05 0.106612)
(-3.22102e-06 -1.64143e-06 0.108595)
(3.27646e-06 -1.63006e-06 0.108595)
(-3.24122e-06 -1.64029e-06 0.108595)
(7.75492e-05 7.7552e-05 0.106612)
(7.0489e-05 7.04501e-05 0.106415)
(-7.75804e-05 -7.7541e-05 0.106612)
(3.35243e-06 1.70463e-06 0.108595)
(-3.34146e-06 1.73922e-06 0.108595)
(3.34893e-06 1.69387e-06 0.108594)
(-3.3865e-06 1.73353e-06 0.108594)
(-7.04398e-05 7.04002e-05 0.106416)
(7.75681e-05 -7.75696e-05 0.106613)
(1.64906e-06 3.26264e-06 0.108595)
(1.73306e-06 -3.34365e-06 0.108594)
(1.63356e-06 3.26666e-06 0.108595)
(1.73169e-06 -3.35736e-06 0.108594)
(-1.68534e-06 -3.32715e-06 0.108595)
(-1.64184e-06 3.27413e-06 0.108596)
(-1.69595e-06 -3.32782e-06 0.108594)
(7.0444e-05 -7.05111e-05 0.106415)
(-7.7537e-05 7.75822e-05 0.106612)
(-3.23428e-06 -1.64468e-06 0.108595)
(3.27196e-06 -1.61673e-06 0.108595)
(-3.26281e-06 -1.62107e-06 0.108595)
(7.75164e-05 7.75575e-05 0.106612)
(7.04599e-05 7.04397e-05 0.106415)
(-7.75802e-05 -7.75327e-05 0.106612)
(3.33638e-06 1.71136e-06 0.108595)
(-3.37762e-06 1.735e-06 0.108594)
(3.33324e-06 1.6856e-06 0.108594)
(-3.38622e-06 1.71578e-06 0.108594)
(-7.04749e-05 7.03865e-05 0.106415)
(7.75604e-05 -7.75692e-05 0.106613)
(1.63684e-06 3.25485e-06 0.108595)
(1.73327e-06 -3.34911e-06 0.108594)
(1.60808e-06 3.26316e-06 0.108595)
(1.70407e-06 -3.35873e-06 0.108593)
(-1.71428e-06 -3.31487e-06 0.108595)
(-1.63791e-06 3.2653e-06 0.108595)
(-1.69751e-06 -3.32055e-06 0.108594)
(7.04329e-05 -7.04991e-05 0.106415)
(-7.75372e-05 7.75658e-05 0.106612)
(-3.25381e-06 -1.63162e-06 0.108595)
(3.2554e-06 -1.61196e-06 0.108595)
(-3.26872e-06 -1.60824e-06 0.108595)
(7.75065e-05 7.75518e-05 0.106612)
(7.04409e-05 7.04272e-05 0.106415)
(-7.75738e-05 -7.75209e-05 0.106612)
(3.3198e-06 1.71185e-06 0.108595)
(-3.37925e-06 1.74071e-06 0.108594)
(3.32251e-06 1.66272e-06 0.108594)
(-3.35782e-06 1.70026e-06 0.108594)
(-7.04585e-05 7.03707e-05 0.106415)
(7.75705e-05 -7.75497e-05 0.106612)
(1.63252e-06 3.25608e-06 0.108595)
(1.72206e-06 -3.35319e-06 0.108594)
(1.58856e-06 3.26108e-06 0.108595)
(1.67784e-06 -3.34584e-06 0.108593)
(-1.73097e-06 -3.31946e-06 0.108595)
(-1.60023e-06 3.25472e-06 0.108595)
(-1.67202e-06 -3.31353e-06 0.108594)
(7.04134e-05 -7.04957e-05 0.106415)
(-7.75339e-05 7.75557e-05 0.106611)
(-3.26675e-06 -1.64286e-06 0.108595)
(3.24635e-06 -1.59351e-06 0.108595)
(-3.25577e-06 -1.58164e-06 0.108594)
(7.74946e-05 7.75399e-05 0.106611)
(7.04213e-05 7.04121e-05 0.106415)
(-7.75391e-05 -7.74876e-05 0.106612)
(3.33868e-06 1.73385e-06 0.108595)
(-3.36758e-06 1.7647e-06 0.108594)
(3.31551e-06 1.64224e-06 0.108594)
(-3.34602e-06 1.68654e-06 0.108593)
(-7.04171e-05 7.03573e-05 0.106415)
(7.75528e-05 -7.7511e-05 0.106612)
(1.65367e-06 3.27546e-06 0.108595)
(1.74091e-06 -3.36075e-06 0.108594)
(1.55869e-06 3.25475e-06 0.108594)
(1.65281e-06 -3.32735e-06 0.108593)
(-1.73796e-06 -3.32856e-06 0.108594)
(-1.55963e-06 3.24603e-06 0.108595)
(-1.64667e-06 -3.3095e-06 0.108593)
(7.03885e-05 -7.04743e-05 0.106415)
(-7.75066e-05 7.75372e-05 0.106611)
(-3.26643e-06 -1.64831e-06 0.108595)
(3.23151e-06 -1.56061e-06 0.108594)
(-3.2467e-06 -1.55564e-06 0.108594)
(7.74668e-05 7.75105e-05 0.106611)
(7.04049e-05 7.03963e-05 0.106415)
(-7.74847e-05 -7.74288e-05 0.106611)
(3.35933e-06 1.77162e-06 0.108595)
(-3.3935e-06 1.81015e-06 0.108594)
(3.30769e-06 1.60253e-06 0.108593)
(-3.33452e-06 1.64153e-06 0.108593)
(-7.03911e-05 7.03463e-05 0.106415)
(7.74907e-05 -7.74511e-05 0.106612)
(1.68829e-06 3.30164e-06 0.108595)
(1.77384e-06 -3.37274e-06 0.108594)
(1.52399e-06 3.24529e-06 0.108594)
(1.6164e-06 -3.30407e-06 0.108593)
(-1.77527e-06 -3.35551e-06 0.108594)
(-1.52417e-06 3.24153e-06 0.108594)
(-1.60044e-06 -3.28653e-06 0.108593)
(7.03651e-05 -7.0446e-05 0.106415)
(-7.74517e-05 7.74875e-05 0.106611)
(-3.29352e-06 -1.69246e-06 0.108595)
(3.21662e-06 -1.51412e-06 0.108594)
(-3.22671e-06 -1.51643e-06 0.108594)
(7.74172e-05 7.74602e-05 0.106611)
(7.03763e-05 7.0368e-05 0.106415)
(-7.73922e-05 -7.73493e-05 0.106611)
(3.41237e-06 1.83711e-06 0.108595)
(-3.43634e-06 1.86951e-06 0.108594)
(3.28003e-06 1.52843e-06 0.108593)
(-3.29615e-06 1.56827e-06 0.108592)
(-7.03664e-05 7.03206e-05 0.106415)
(7.74058e-05 -7.737e-05 0.106611)
(1.7604e-06 3.34484e-06 0.108596)
(1.84397e-06 -3.40421e-06 0.108594)
(1.45559e-06 3.20489e-06 0.108593)
(1.54567e-06 -3.2662e-06 0.108592)
(-1.83386e-06 -3.3873e-06 0.108595)
(-1.44755e-06 3.19959e-06 0.108594)
(-1.52733e-06 -3.24891e-06 0.108592)
(7.03369e-05 -7.04096e-05 0.106415)
(-7.7371e-05 7.73955e-05 0.106611)
(-3.32703e-06 -1.75415e-06 0.108595)
(3.18737e-06 -1.44475e-06 0.108593)
(-3.18563e-06 -1.43958e-06 0.108593)
(7.73421e-05 7.73843e-05 0.106611)
(7.03171e-05 7.02976e-05 0.106415)
(-7.72747e-05 -7.72327e-05 0.10661)
(3.47233e-06 1.93752e-06 0.108595)
(-3.49289e-06 1.97288e-06 0.108595)
(3.1876e-06 1.39004e-06 0.108592)
(-3.21749e-06 1.4294e-06 0.108592)
(-7.03044e-05 7.02525e-05 0.106415)
(7.72754e-05 -7.72588e-05 0.106611)
(1.86925e-06 3.39806e-06 0.108596)
(1.94868e-06 -3.47267e-06 0.108595)
(1.32061e-06 3.11982e-06 0.108593)
(1.40778e-06 -3.2029e-06 0.108592)
(-1.93606e-06 -3.44674e-06 0.108595)
(-1.32531e-06 3.11835e-06 0.108593)
(-1.40077e-06 -3.18111e-06 0.108592)
(7.02715e-05 -7.03554e-05 0.106415)
(-7.72444e-05 7.72521e-05 0.10661)
(-3.38193e-06 -1.85889e-06 0.108596)
(3.10583e-06 -1.32277e-06 0.108593)
(-3.11521e-06 -1.31589e-06 0.108593)
(7.72087e-05 7.72495e-05 0.10661)
(7.01834e-05 7.01633e-05 0.106415)
(-7.70634e-05 -7.70092e-05 0.10661)
(3.53615e-06 2.09305e-06 0.108596)
(-3.5736e-06 2.12456e-06 0.108595)
(3.06109e-06 1.16651e-06 0.108591)
(-3.1092e-06 1.19779e-06 0.108591)
(-7.01909e-05 7.01195e-05 0.106415)
(7.70438e-05 -7.70404e-05 0.10661)
(2.02771e-06 3.4697e-06 0.108597)
(2.10577e-06 -3.56538e-06 0.108595)
(1.07961e-06 2.99557e-06 0.108592)
(1.17757e-06 -3.08716e-06 0.108591)
(-2.10513e-06 -3.53351e-06 0.108595)
(-1.10782e-06 3.00238e-06 0.108592)
(-1.18329e-06 -3.05863e-06 0.108591)
(7.0148e-05 -7.02462e-05 0.106415)
(-7.70215e-05 7.70424e-05 0.106609)
(-3.46982e-06 -2.03094e-06 0.108596)
(2.98069e-06 -1.09059e-06 0.108592)
(-3.00368e-06 -1.08604e-06 0.108592)
(7.69793e-05 7.70314e-05 0.106609)
(6.99703e-05 6.99642e-05 0.106416)
(-7.66724e-05 -7.66223e-05 0.106608)
(3.67013e-06 2.35355e-06 0.108597)
(-3.72465e-06 2.38257e-06 0.108596)
(2.87439e-06 8.13358e-07 0.10859)
(-2.92777e-06 8.53073e-07 0.10859)
(-6.99974e-05 6.99185e-05 0.106416)
(7.6649e-05 -7.66394e-05 0.106609)
(2.27862e-06 3.60696e-06 0.108597)
(2.36004e-06 -3.70298e-06 0.108596)
(7.29734e-07 2.81028e-06 0.108591)
(8.28901e-07 -2.8971e-06 0.108589)
(-2.37144e-06 -3.66577e-06 0.108596)
(-7.62775e-07 2.81328e-06 0.108591)
(-8.40411e-07 -2.86543e-06 0.10859)
(6.99481e-05 -7.00281e-05 0.106416)
(-7.66347e-05 7.66556e-05 0.106608)
(-3.61456e-06 -2.28486e-06 0.108597)
(2.79905e-06 -7.38829e-07 0.108591)
(-2.81497e-06 -7.3747e-07 0.108591)
(7.6591e-05 7.66488e-05 0.106608)
(6.96317e-05 6.96247e-05 0.106417)
(-7.59831e-05 -7.59579e-05 0.106606)
(3.91501e-06 2.81456e-06 0.108598)
(-3.95963e-06 2.84819e-06 0.108598)
(2.58192e-06 3.14092e-07 0.108588)
(-2.59845e-06 3.44293e-07 0.108588)
(-6.96549e-05 6.95788e-05 0.106417)
(7.59918e-05 -7.59675e-05 0.106607)
(2.75149e-06 3.84273e-06 0.108599)
(2.82473e-06 -3.93434e-06 0.108598)
(2.39559e-07 2.51519e-06 0.108589)
(3.28444e-07 -2.5804e-06 0.108588)
(-2.84136e-06 -3.89828e-06 0.108598)
(-2.49583e-07 2.50515e-06 0.10859)
(-3.28974e-07 -2.56792e-06 0.108588)
(6.96038e-05 -6.96871e-05 0.106417)
(-7.59631e-05 7.60029e-05 0.106606)
(-3.84832e-06 -2.76025e-06 0.108599)
(2.49756e-06 -2.31897e-07 0.108589)
(-2.50375e-06 -2.34259e-07 0.108589)
(7.5932e-05 7.5964e-05 0.106606)
(6.90325e-05 6.89965e-05 0.10642)
(-7.48906e-05 -7.4874e-05 0.106602)
(4.31656e-06 3.5813e-06 0.108601)
(-4.3223e-06 3.61244e-06 0.1086)
(2.00328e-06 -5.95685e-07 0.108586)
(-1.96087e-06 -5.63851e-07 0.108585)
(-6.90127e-05 6.89624e-05 0.10642)
(7.49537e-05 -7.48837e-05 0.106602)
(3.54443e-06 4.23655e-06 0.108601)
(3.60119e-06 -4.30632e-06 0.1086)
(-6.60189e-07 1.90929e-06 0.108587)
(-5.65032e-07 -1.97636e-06 0.108585)
(-3.59543e-06 -4.29934e-06 0.108601)
(7.01531e-07 1.90974e-06 0.108587)
(6.09388e-07 -1.98255e-06 0.108586)
(6.899e-05 -6.90418e-05 0.10642)
(-7.48685e-05 7.49245e-05 0.106602)
(-4.22862e-06 -3.53279e-06 0.108601)
(1.92071e-06 6.84841e-07 0.108587)
(-1.8794e-06 6.80392e-07 0.108586)
(7.48772e-05 7.48705e-05 0.106602)
(6.78165e-05 6.77753e-05 0.106424)
(-7.29651e-05 -7.29356e-05 0.106594)
(4.91938e-06 4.67067e-06 0.108605)
(-4.86666e-06 4.70864e-06 0.108604)
(9.57247e-07 -2.1552e-06 0.108582)
(-8.9486e-07 -2.12823e-06 0.108582)
(-6.77514e-05 6.77498e-05 0.106424)
(7.30325e-05 -7.29566e-05 0.106594)
(4.65348e-06 4.80793e-06 0.108605)
(4.71393e-06 -4.8839e-06 0.108604)
(-2.24633e-06 8.65826e-07 0.108583)
(-2.13494e-06 -9.27686e-07 0.108582)
(-4.65844e-06 -4.88193e-06 0.108604)
(2.28715e-06 8.59529e-07 0.108583)
(2.18715e-06 -9.11008e-07 0.108582)
(6.77847e-05 -6.78177e-05 0.106424)
(-7.29421e-05 7.29905e-05 0.106594)
(-4.77435e-06 -4.62603e-06 0.108605)
(8.76265e-07 2.25636e-06 0.108583)
(-8.03414e-07 2.24963e-06 0.108583)
(7.29648e-05 7.29581e-05 0.106594)
(6.55438e-05 6.5523e-05 0.106433)
(-6.92662e-05 -6.92486e-05 0.106578)
(5.87795e-06 6.29656e-06 0.10861)
(-5.8271e-06 6.33649e-06 0.10861)
(-8.5325e-07 -4.66074e-06 0.108576)
(8.62532e-07 -4.62779e-06 0.108576)
(-6.54878e-05 6.54896e-05 0.106433)
(6.92991e-05 -6.92639e-05 0.106579)
(6.27211e-06 5.77347e-06 0.108611)
(6.33716e-06 -5.84686e-06 0.108609)
(-4.75637e-06 -9.09487e-07 0.108577)
(-4.643e-06 8.5464e-07 0.108576)
(-6.27928e-06 -5.81072e-06 0.10861)
(4.77226e-06 -9.13352e-07 0.108578)
(4.67899e-06 8.91505e-07 0.108576)
(6.55219e-05 -6.55555e-05 0.106433)
(-6.9251e-05 6.92822e-05 0.106578)
(-5.71134e-06 -6.24875e-06 0.10861)
(-9.15969e-07 4.76565e-06 0.108577)
(9.59559e-07 4.78406e-06 0.108577)
(6.92436e-05 6.92841e-05 0.106578)
(6.1304e-05 6.12895e-05 0.10645)
(-6.17331e-05 -6.17146e-05 0.106549)
(7.51549e-06 8.91657e-06 0.108618)
(-7.51357e-06 8.95857e-06 0.108617)
(-3.80955e-06 -8.4922e-06 0.108568)
(3.78191e-06 -8.46818e-06 0.108568)
(-6.12896e-05 6.12607e-05 0.10645)
(6.17384e-05 -6.17461e-05 0.10655)
(8.90102e-06 7.42358e-06 0.108618)
(8.9542e-06 -7.50318e-06 0.108617)
(-8.61644e-06 -3.83435e-06 0.108569)
(-8.50911e-06 3.79978e-06 0.108568)
(-8.92729e-06 -7.45539e-06 0.108618)
(8.57853e-06 -3.84397e-06 0.10857)
(8.48224e-06 3.80808e-06 0.108568)
(6.12882e-05 -6.13266e-05 0.10645)
(-6.17334e-05 6.17261e-05 0.106549)
(-7.39606e-06 -8.8631e-06 0.108618)
(-3.87432e-06 8.59794e-06 0.108569)
(3.84595e-06 8.61349e-06 0.108569)
(6.16643e-05 6.17375e-05 0.106549)
(5.30413e-05 5.30517e-05 0.106481)
(-4.68068e-05 -4.67598e-05 0.106497)
(1.04556e-05 1.32521e-05 0.108629)
(-1.04964e-05 1.3295e-05 0.108628)
(-9.42776e-06 -1.57302e-05 0.108556)
(9.37789e-06 -1.57245e-05 0.108555)
(-5.30491e-05 5.30109e-05 0.106481)
(4.67582e-05 -4.67866e-05 0.106498)
(1.32248e-05 1.03731e-05 0.108629)
(1.32757e-05 -1.04432e-05 0.108628)
(-1.58772e-05 -9.39594e-06 0.108557)
(-1.57773e-05 9.3878e-06 0.108555)
(-1.32975e-05 -1.04176e-05 0.108629)
(1.58125e-05 -9.4002e-06 0.108557)
(1.57363e-05 9.40981e-06 0.108556)
(5.30321e-05 -5.30812e-05 0.106481)
(-4.67852e-05 4.67516e-05 0.106497)
(-1.03688e-05 -1.32196e-05 0.108629)
(-9.44967e-06 1.58256e-05 0.108557)
(9.40777e-06 1.58576e-05 0.108557)
(4.67268e-05 4.67515e-05 0.106497)
(3.43898e-05 3.44858e-05 0.106533)
(-5.70686e-05 -5.68265e-05 0.106508)
(1.42119e-05 1.65881e-05 0.108643)
(-1.42729e-05 1.66206e-05 0.108642)
(-3.56819e-05 -6.0014e-05 0.10859)
(3.56406e-05 -6.00458e-05 0.108589)
(-3.44563e-05 3.44581e-05 0.106534)
(5.70726e-05 -5.68516e-05 0.106508)
(1.65078e-05 1.41599e-05 0.108643)
(1.65665e-05 -1.42106e-05 0.108642)
(-6.02984e-05 -3.55139e-05 0.108591)
(-6.0168e-05 3.5647e-05 0.108589)
(-1.65963e-05 -1.41789e-05 0.108643)
(6.02529e-05 -3.55285e-05 0.108591)
(6.01329e-05 3.56391e-05 0.10859)
(3.44212e-05 -3.44779e-05 0.106534)
(-5.69658e-05 5.70333e-05 0.106508)
(-1.41506e-05 -1.65374e-05 0.108643)
(-3.56472e-05 6.02445e-05 0.108591)
(3.56047e-05 6.02701e-05 0.108591)
(5.69191e-05 5.69918e-05 0.106508)
(-3.19869e-05 -3.1727e-05 0.106805)
(-1.82352e-05 -3.61373e-05 0.108743)
(1.8174e-05 -3.61381e-05 0.108743)
(3.19545e-05 -3.17725e-05 0.106805)
(-3.63431e-05 -1.8066e-05 0.108744)
(-3.62578e-05 1.81851e-05 0.108743)
(4.61531e-05 -4.60482e-05 0.110371)
(-4.61189e-05 4.61613e-05 0.110371)
(4.61257e-05 4.61978e-05 0.110371)
(3.62588e-05 1.82028e-05 0.108743)
(-3.18969e-05 3.19266e-05 0.106804)
(1.81495e-05 3.63391e-05 0.108744)
(-2.58128e-06 -2.60903e-06 0.110322)
(2.59568e-06 -2.56916e-06 0.110322)
(-2.57505e-06 2.5389e-06 0.110322)
(2.58873e-06 2.56544e-06 0.110322)
(-1.44525e-07 -1.05376e-05 0.0929194)
(1.83288e-07 9.6418e-06 0.0826766)
(-1.26903e-07 9.56192e-06 0.0928552)
(-2.37305e-06 -8.29776e-06 0.0827444)
(-2.55e-06 4.62465e-06 0.0715448)
(3.0114e-06 -4.06277e-06 0.0716091)
(-1.05863e-05 -1.3831e-07 0.0929184)
(9.53317e-06 1.62496e-07 0.0826756)
(9.59521e-06 -1.13557e-07 0.0928556)
(-8.31314e-06 -2.35526e-06 0.082745)
(2.59267e-06 -2.57921e-06 0.110322)
(-2.58245e-06 2.57248e-06 0.110322)
(2.58613e-06 2.58091e-06 0.110322)
(-2.60371e-06 -2.58869e-06 0.110322)
(2.58483e-06 -2.57825e-06 0.110322)
(-2.5755e-06 2.5809e-06 0.110322)
(2.57215e-06 2.57982e-06 0.110322)
(2.10669e-05 -4.25154e-08 0.101205)
(-1.72263e-05 4.3167e-06 0.0944572)
(-2.33018e-06 -6.76201e-07 0.109721)
(-1.65223e-06 3.28247e-06 0.108596)
(-2.09415e-05 1.07192e-08 0.101097)
(1.44801e-05 -5.56795e-06 0.0945636)
(-2.32588e-06 -6.6562e-07 0.109722)
(4.53444e-06 -2.51432e-06 0.0715416)
(-3.97099e-06 2.94719e-06 0.0716103)
(-4.43752e-08 2.10416e-05 0.101204)
(-6.41729e-07 -2.28144e-06 0.109721)
(4.33568e-06 -1.72645e-05 0.0944574)
(3.28069e-06 -1.64821e-06 0.108596)
(-1.95059e-09 -2.09094e-05 0.101096)
(-6.39842e-07 -2.29359e-06 0.109721)
(-5.60178e-06 1.45346e-05 0.0945622)
(-6.24592e-06 -5.51492e-06 0.0883853)
(-5.48902e-06 -6.24298e-06 0.0883839)
(7.75512e-05 7.75847e-05 0.106612)
(4.64588e-06 5.25328e-06 0.0884521)
(5.2716e-06 4.65042e-06 0.0884499)
(-1.61137e-07 -1.05948e-05 0.0929191)
(2.40088e-07 9.57556e-06 0.0826762)
(-1.30638e-07 9.53589e-06 0.0928548)
(-2.26796e-06 -8.37476e-06 0.0827441)
(-2.54902e-06 4.61565e-06 0.0715443)
(2.9948e-06 -4.07831e-06 0.0716087)
(-1.0644e-05 -1.19213e-07 0.0929181)
(9.516e-06 2.19937e-07 0.0826751)
(9.57973e-06 -9.26448e-08 0.0928552)
(-8.36179e-06 -2.26294e-06 0.0827446)
(2.59175e-06 -2.58261e-06 0.110322)
(-2.57952e-06 2.58562e-06 0.110322)
(2.58189e-06 2.58406e-06 0.110322)
(-2.60423e-06 -2.59227e-06 0.110322)
(2.59892e-06 -2.58917e-06 0.110322)
(-2.58195e-06 2.60013e-06 0.110322)
(2.58186e-06 2.59797e-06 0.110322)
(2.11195e-05 -3.26446e-08 0.101205)