/*--------------------------------*- C++ -*----------------------------------*\
| =========                 |                                                 |
| \\      /  F ield         | OpenFOAM: The Open Source CFD Toolbox           |
|  \\    /   O peration     | Version:  v1912                                 |
|   \\  /    A nd           | Website:  www.openfoam.com                      |
|    \\/     M anipulation  |                                                 |
\*---------------------------------------------------------------------------*/
FoamFile
{
    version     2.0;
    format      ascii;
    class       volScalarField;
    location    "120";
    object      epsilon;
}
// * * * * * * * * * * * * * * * * * * * * * * * * * * * * * * * * * * * * * //

dimensions      [0 2 -3 0 0 0 0];


internalField   nonuniform List<scalar> 
57566
(
1.82847e-05
1.4439e-06
2.92901e-07
1.70346e-07
2.99648e-06
4.89623e-07
5.18663e-06
5.18845e-06
1.82796e-05
1.82822e-05
4.91416e-07
5.18685e-06
5.18863e-06
3.80769e-06
8.87586e-06
3.80767e-06
8.877e-06
1.44369e-06
2.93031e-07
2.99706e-06
1.7031e-07
1.44375e-06
2.93101e-07
2.9976e-06
1.70335e-07
1.82812e-05
4.91359e-07
5.18839e-06
5.1868e-06
1.8279e-05
3.80748e-06
8.87752e-06
1.44356e-06
2.93019e-07
1.70352e-07
2.9969e-06
3.80753e-06
8.87792e-06
1.44479e-06
2.92985e-07
2.99771e-06
1.70321e-07
3.80728e-06
8.87703e-06
1.44394e-06
2.93072e-07
1.70342e-07
2.99711e-06
1.44338e-06
2.92953e-07
1.70335e-07
2.99662e-06
3.80741e-06
8.87721e-06
1.44364e-06
2.92903e-07
2.99696e-06
1.70304e-07
3.80757e-06
8.87674e-06
1.44375e-06
2.93006e-07
1.70326e-07
2.99679e-06
3.80731e-06
8.87673e-06
4.8964e-07
5.18826e-06
5.18643e-06
1.8283e-05
1.8282e-05
4.91221e-07
5.18835e-06
5.18637e-06
1.82805e-05
1.44397e-06
2.92916e-07
1.70353e-07
2.99707e-06
3.8073e-06
8.87721e-06
3.80738e-06
8.87833e-06
1.44417e-06
2.92954e-07
1.70335e-07
2.99664e-06
1.44426e-06
2.92969e-07
1.70345e-07
2.99725e-06
3.80706e-06
8.87673e-06
3.80718e-06
8.87784e-06
1.82833e-05
1.82848e-05
4.91201e-07
5.18661e-06
5.18839e-06
1.82808e-05
1.82823e-05
1.82828e-05
9.62388e-06
2.17142e-05
2.17138e-05
2.17118e-05
2.17113e-05
9.62308e-06
4.09109e-06
9.07751e-06
5.18746e-06
2.19104e-06
2.19161e-06
9.07745e-06
4.09015e-06
4.09764e-06
9.08242e-06
5.18927e-06
2.19248e-06
2.19303e-06
9.08236e-06
4.09675e-06
1.82815e-05
1.8284e-05
9.62237e-06
2.17107e-05
2.17108e-05
9.62306e-06
2.17134e-05
2.17132e-05
4.08983e-06
9.07682e-06
2.19103e-06
5.18609e-06
4.0904e-06
9.07702e-06
2.19067e-06
4.09607e-06
9.08221e-06
2.19247e-06
5.1878e-06
4.09705e-06
9.08218e-06
2.19192e-06
1.20913e-05
1.06869e-05
4.53899e-06
3.80693e-06
1.20909e-05
1.06871e-05
4.53869e-06
2.21443e-05
7.10153e-06
8.8759e-06
2.21404e-05
7.10089e-06
1.20913e-05
1.06871e-05
4.53898e-06
3.8069e-06
1.20909e-05
1.06872e-05
4.53872e-06
2.21444e-05
7.10305e-06
8.87704e-06
2.2141e-05
7.10272e-06
1.82829e-05
9.6223e-06
2.17103e-05
2.17109e-05
9.62298e-06
2.17129e-05
2.17135e-05
4.09612e-06
9.08175e-06
2.19234e-06
5.18763e-06
2.19191e-06
4.09699e-06
9.08185e-06
4.08945e-06
9.07698e-06
2.19088e-06
5.18599e-06
4.09028e-06
9.07708e-06
2.19045e-06
1.82809e-05
1.20918e-05
3.80819e-06
1.0688e-05
4.53922e-06
1.06879e-05
4.53967e-06
1.20921e-05
2.21412e-05
7.1014e-06
8.87753e-06
7.10228e-06
2.21448e-05
1.20915e-05
4.53905e-06
1.06875e-05
3.8069e-06
1.20911e-05
4.5388e-06
1.06876e-05
2.21442e-05
7.10303e-06
8.87796e-06
2.21408e-05
7.10273e-06
1.20914e-05
1.06872e-05
4.53879e-06
3.80668e-06
1.20911e-05
1.06873e-05
4.53843e-06
2.21438e-05
7.10146e-06
8.87706e-06
2.21401e-05
7.10075e-06
1.20916e-05
3.80832e-06
1.06878e-05
4.53902e-06
1.06877e-05
4.53939e-06
1.20918e-05
2.21407e-05
7.101e-06
8.87723e-06
7.10149e-06
2.2144e-05
1.2091e-05
4.53876e-06
1.06873e-05
3.80678e-06
1.20906e-05
4.53849e-06
1.06874e-05
2.2143e-05
7.10241e-06
8.87678e-06
2.21395e-05
7.10208e-06
1.20912e-05
1.06871e-05
4.53852e-06
3.80664e-06
1.20909e-05
1.06872e-05
4.53824e-06
2.2143e-05
7.1007e-06
8.87676e-06
2.21395e-05
7.10031e-06
9.62435e-06
2.17145e-05
2.17145e-05
2.1712e-05
2.17121e-05
9.62354e-06
4.09793e-06
9.08232e-06
5.18916e-06
2.1925e-06
9.08225e-06
2.1931e-06
4.09698e-06
4.09131e-06
9.07743e-06
5.18726e-06
2.19097e-06
2.19155e-06
9.07737e-06
4.09035e-06
1.82813e-05
1.82839e-05
9.62289e-06
2.17111e-05
2.17112e-05
9.62349e-06
2.17137e-05
2.17138e-05
4.09644e-06
9.08175e-06
2.19255e-06
5.18768e-06
2.19209e-06
4.097e-06
9.08185e-06
4.0898e-06
9.07685e-06
2.19097e-06
5.18581e-06
4.09038e-06
9.07696e-06
2.19054e-06
1.82822e-05
1.20915e-05
3.80798e-06
4.53889e-06
1.06879e-05
4.53924e-06
1.06879e-05
1.20917e-05
2.21406e-05
7.10095e-06
8.87722e-06
7.10142e-06
2.2144e-05
1.20914e-05
3.80811e-06
4.53917e-06
1.06881e-05
4.53951e-06
1.06881e-05
1.20916e-05
2.21406e-05
7.10286e-06
8.87834e-06
7.10323e-06
2.21439e-05
1.20911e-05
4.53837e-06
1.06872e-05
3.80648e-06
1.20908e-05
4.53809e-06
1.06873e-05
2.2143e-05
7.10062e-06
8.87676e-06
2.21395e-05
7.10024e-06
1.2091e-05
4.53864e-06
1.06874e-05
3.80657e-06
1.20907e-05
4.53837e-06
1.06875e-05
2.21429e-05
7.10245e-06
8.87788e-06
2.21394e-05
7.10215e-06
1.82816e-05
1.82831e-05
9.62245e-06
2.17109e-05
2.17104e-05
9.62304e-06
2.17135e-05
2.1713e-05
4.08962e-06
9.07694e-06
2.19106e-06
5.18607e-06
4.09016e-06
2.19065e-06
9.07705e-06
4.09623e-06
9.08186e-06
2.19248e-06
5.18786e-06
4.09676e-06
2.19209e-06
9.08196e-06
1.82826e-05
1.82841e-05
1.21467e-07
9.24366e-08
9.24301e-08
7.99545e-08
1.21463e-07
9.24338e-08
9.24296e-08
7.99536e-08
1.21335e-07
9.22138e-08
9.22079e-08
7.96581e-08
1.21331e-07
9.22155e-08
9.22063e-08
7.96575e-08
1.21344e-07
9.22182e-08
9.22115e-08
7.96572e-08
1.21339e-07
9.22152e-08
9.22109e-08
7.96561e-08
6.49068e-07
1.44498e-06
5.35076e-07
1.74419e-06
5.36215e-07
1.74542e-06
6.47296e-07
8.73873e-07
2.32322e-06
2.9976e-06
1.27991e-06
1.28122e-06
2.32475e-06
8.72024e-07
2.0082e-06
4.91275e-07
1.01862e-06
1.01896e-06
1.0201e-06
1.02046e-06
2.00709e-06
2.00701e-06
4.89778e-07
1.02002e-06
1.02037e-06
2.0081e-06
1.01859e-06
1.01886e-06
6.472e-07
1.74509e-06
5.3634e-07
1.44292e-06
6.48983e-07
1.74392e-06
5.35258e-07
8.71903e-07
2.3246e-06
1.28119e-06
2.99597e-06
1.27994e-06
8.73756e-07
2.32338e-06
6.47337e-07
1.7453e-06
5.36372e-07
1.4429e-06
6.49117e-07
1.74413e-06
5.3529e-07
8.72179e-07
2.32525e-06
1.28161e-06
2.99659e-06
8.7404e-07
2.32403e-06
1.28033e-06
2.0069e-06
4.89712e-07
1.02026e-06
1.01995e-06
1.01879e-06
2.00799e-06
1.01847e-06
6.49105e-07
1.44436e-06
5.35247e-07
1.74434e-06
5.36317e-07
1.74556e-06
6.47333e-07
8.74018e-07
2.3235e-06
2.99809e-06
1.28039e-06
2.3248e-06
8.72166e-07
1.28171e-06
6.47376e-07
1.74536e-06
5.36424e-07
1.44372e-06
6.49165e-07
1.7442e-06
5.35334e-07
8.72114e-07
2.32523e-06
1.28161e-06
2.99663e-06
1.28027e-06
8.73996e-07
2.324e-06
6.47491e-07
5.3617e-07
1.74466e-06
1.44339e-06
6.48962e-07
5.35289e-07
1.74378e-06
8.72196e-07
2.32397e-06
1.28131e-06
2.99624e-06
8.73731e-07
2.32313e-06
1.28028e-06
6.49044e-07
1.44419e-06
5.35157e-07
1.74425e-06
5.3622e-07
1.74549e-06
6.47279e-07
8.73922e-07
2.32336e-06
2.99773e-06
1.28005e-06
1.28135e-06
2.32477e-06
8.72076e-07
6.47238e-07
1.74508e-06
5.36292e-07
1.44296e-06
6.49029e-07
1.74391e-06
5.35212e-07
8.7192e-07
2.32485e-06
1.28099e-06
2.99586e-06
8.73788e-07
1.2797e-06
2.32361e-06
6.47439e-07
5.36079e-07
1.74459e-06
1.44323e-06
6.4891e-07
5.35203e-07
1.7437e-06
8.72108e-07
2.32385e-06
1.28095e-06
2.996e-06
8.73636e-07
2.32299e-06
1.27995e-06
2.00829e-06
4.91278e-07
1.01895e-06
1.01867e-06
1.02016e-06
1.02045e-06
2.00715e-06
2.00695e-06
4.89656e-07
1.01996e-06
1.01967e-06
1.01888e-06
2.00754e-06
1.0186e-06
6.49233e-07
1.44507e-06
5.35332e-07
1.74447e-06
5.36395e-07
1.74571e-06
6.47455e-07
8.74155e-07
2.32395e-06
2.99819e-06
1.28041e-06
1.28173e-06
2.32525e-06
8.72296e-07
6.47455e-07
5.36012e-07
1.74454e-06
1.4434e-06
6.48935e-07
5.35128e-07
1.74363e-06
8.72054e-07
2.32368e-06
1.28082e-06
2.99586e-06
8.73592e-07
1.27981e-06
2.32277e-06
6.47615e-07
5.36259e-07
1.74482e-06
1.44347e-06
6.49094e-07
5.35365e-07
1.74391e-06
8.72324e-07
2.32442e-06
1.28133e-06
2.99645e-06
8.73872e-07
2.32357e-06
1.28031e-06
2.00687e-06
4.89635e-07
1.01962e-06
1.01997e-06
2.00749e-06
1.01856e-06
1.0189e-06
1.82794e-05
1.82813e-05
4.92491e-07
5.18593e-06
5.1876e-06
3.80536e-06
8.87575e-06
3.80537e-06
1.44321e-06
2.9431e-07
2.99616e-06
1.70965e-07
1.44324e-06
1.70987e-07
3.80546e-06
8.87745e-06
1.44342e-06
2.94253e-07
2.99673e-06
1.70984e-07
3.80532e-06
8.87683e-06
1.44334e-06
2.9434e-07
1.70993e-07
2.99672e-06
1.82815e-05
4.92494e-07
5.18771e-06
5.18592e-06
1.82801e-05
1.44324e-06
2.94239e-07
1.7098e-07
2.99625e-06
1.44333e-06
1.70982e-07
3.80524e-06
8.87654e-06
3.8053e-06
1.82815e-05
1.82834e-05
9.62142e-06
2.17095e-05
2.171e-05
9.62164e-06
2.17125e-05
2.17129e-05
4.0901e-06
9.07743e-06
2.19111e-06
5.18585e-06
4.0903e-06
9.07767e-06
2.19096e-06
4.09579e-06
9.08186e-06
2.19272e-06
5.18749e-06
4.09592e-06
9.08215e-06
2.19248e-06
1.20903e-05
1.06855e-05
4.53739e-06
3.8052e-06
1.20896e-05
1.06859e-05
4.53739e-06
2.21433e-05
7.10034e-06
8.87589e-06
2.21391e-05
7.10002e-06
1.20904e-05
1.06856e-05
4.53743e-06
3.80521e-06
1.20898e-05
1.0686e-05
4.53747e-06
1.20906e-05
4.5375e-06
1.06862e-05
3.80535e-06
1.209e-05
4.53754e-06
1.06866e-05
2.21432e-05
7.10171e-06
8.87768e-06
2.21392e-05
7.10175e-06
1.20907e-05
1.0686e-05
4.53735e-06
3.80522e-06
1.209e-05
1.06864e-05
4.53735e-06
2.21434e-05
7.10035e-06
8.87704e-06
2.21391e-05
7.10006e-06
1.82838e-05
9.62284e-06
2.17108e-05
2.17109e-05
9.62306e-06
2.17138e-05
2.17139e-05
4.09615e-06
9.08177e-06
2.19269e-06
5.18751e-06
2.19244e-06
4.09631e-06
9.08204e-06
4.0895e-06
9.07689e-06
2.19117e-06
5.18582e-06
4.08967e-06
9.07719e-06
2.19094e-06
1.82822e-05
1.20903e-05
4.53703e-06
1.06858e-05
3.80506e-06
1.20896e-05
4.53702e-06
1.06862e-05
2.21426e-05
7.09963e-06
8.87676e-06
2.21386e-05
7.09965e-06
1.20901e-05
4.53743e-06
1.0686e-05
3.8052e-06
1.20894e-05
4.53743e-06
1.06864e-05
1.21456e-07
9.19218e-08
9.19216e-08
7.9007e-08
9.19276e-08
7.90097e-08
1.21479e-07
9.19306e-08
9.19276e-08
7.90137e-08
9.19233e-08
7.90119e-08
2.00707e-06
4.90907e-07
1.02062e-06
1.02118e-06
2.00713e-06
1.01941e-06
1.01995e-06
6.48647e-07
1.74371e-06
5.37384e-07
1.44313e-06
6.50182e-07
1.74362e-06
5.36375e-07
8.73134e-07
2.32337e-06
1.28187e-06
2.99575e-06
1.28073e-06
8.74627e-07
2.32298e-06
6.4874e-07
1.74396e-06
5.37422e-07
1.44317e-06
6.50295e-07
1.74381e-06
5.36414e-07
6.48827e-07
1.74403e-06
5.37514e-07
1.44334e-06
6.50371e-07
1.7439e-06
5.36511e-07
8.73345e-07
2.32396e-06
1.28225e-06
2.99626e-06
1.2811e-06
8.74853e-07
2.32358e-06
6.48779e-07
5.37494e-07
1.74382e-06
1.44329e-06
6.50307e-07
5.36498e-07
1.74373e-06
8.73277e-07
2.3235e-06
1.28229e-06
2.99609e-06
8.7478e-07
2.32312e-06
1.28113e-06
2.00708e-06
4.90889e-07
1.02103e-06
1.02074e-06
1.01981e-06
2.00712e-06
1.01953e-06
6.48734e-07
5.37461e-07
1.74365e-06
1.44315e-06
6.5027e-07
5.3646e-07
1.74349e-06
8.73145e-07
2.32326e-06
1.28184e-06
2.99584e-06
8.7466e-07
1.28069e-06
2.32289e-06
6.48774e-07
5.37473e-07
1.74393e-06
1.44328e-06
6.50326e-07
5.36477e-07
1.74376e-06
1.21458e-07
2.9415e-07
2.94239e-07
4.92777e-07
1.21456e-07
2.94165e-07
2.94247e-07
4.92721e-07
2.943e-07
2.94363e-07
2.94355e-07
2.94352e-07
4.92677e-07
4.90945e-07
2.9429e-07
2.94152e-07
2.94283e-07
2.94248e-07
2.94243e-07
2.94236e-07
4.90989e-07
4.92669e-07
2.94299e-07
2.94329e-07
4.92591e-07
2.94251e-07
2.94321e-07
2.94272e-07
4.92701e-07
2.94218e-07
3.80528e-06
8.87576e-06
3.80539e-06
8.87632e-06
1.82808e-05
1.8283e-05
1.21454e-07
1.21477e-07
1.2146e-07
1.21456e-07
1.21454e-07
1.21475e-07
1.21461e-07
1.44267e-06
2.99607e-06
1.70958e-07
2.94138e-07
2.99551e-06
1.70949e-07
1.44317e-06
1.44276e-06
1.70984e-07
2.9963e-06
2.9425e-07
1.70974e-07
1.44326e-06
2.99578e-06
5.18603e-06
5.18792e-06
4.90856e-07
5.18583e-06
5.18774e-06
3.8052e-06
8.8759e-06
3.80535e-06
8.87598e-06
1.82808e-05
1.8283e-05
3.80535e-06
8.87736e-06
8.87768e-06
3.80543e-06
1.21453e-07
1.21478e-07
1.21462e-07
1.44319e-06
2.99607e-06
1.7096e-07
2.94168e-07
1.44317e-06
2.99559e-06
1.70961e-07
1.82815e-05
1.82838e-05
1.44274e-06
1.70979e-07
2.99627e-06
2.94237e-07
1.44325e-06
1.70979e-07
2.99574e-06
5.18604e-06
5.18792e-06
4.91017e-07
5.18591e-06
5.18781e-06
3.80527e-06
8.87676e-06
8.87699e-06
3.80538e-06
1.44276e-06
2.99624e-06
1.70966e-07
2.94372e-07
1.70971e-07
1.44325e-06
2.99599e-06
1.44278e-06
2.99665e-06
1.70995e-07
2.94348e-07
2.99613e-06
1.70989e-07
1.44328e-06
3.80543e-06
8.87613e-06
3.80521e-06
8.87607e-06
3.80532e-06
8.87699e-06
8.87673e-06
3.80518e-06
1.44316e-06
2.9433e-07
2.99582e-06
1.70973e-07
1.70971e-07
1.44275e-06
2.99638e-06
1.44318e-06
2.94349e-07
2.99613e-06
1.7099e-07
2.99653e-06
1.70991e-07
1.44278e-06
5.18759e-06
5.18577e-06
4.9081e-07
5.1874e-06
5.18549e-06
1.82782e-05
1.82805e-05
1.8283e-05
1.82808e-05
4.9234e-07
5.1874e-06
5.18549e-06
5.18754e-06
5.18573e-06
1.82805e-05
1.82783e-05
3.80513e-06
8.87645e-06
8.87668e-06
3.8053e-06
1.4427e-06
1.70972e-07
2.99631e-06
2.94266e-07
1.70964e-07
2.99579e-06
1.44321e-06
3.80507e-06
8.87648e-06
8.87672e-06
3.80524e-06
1.44307e-06
2.94145e-07
2.99551e-06
1.70955e-07
2.99596e-06
1.70951e-07
1.44268e-06
3.80526e-06
8.87668e-06
8.87643e-06
3.80512e-06
1.44309e-06
2.94272e-07
1.70973e-07
2.99581e-06
1.70969e-07
2.99621e-06
1.44269e-06
3.8052e-06
8.87673e-06
8.87647e-06
3.80506e-06
1.44285e-06
1.70977e-07
2.9968e-06
2.94232e-07
1.70968e-07
2.9963e-06
1.44335e-06
3.80507e-06
8.87661e-06
3.80525e-06
8.8768e-06
3.80519e-06
8.87749e-06
8.87773e-06
3.8053e-06
1.44315e-06
2.94276e-07
1.70978e-07
2.99577e-06
1.70977e-07
1.44275e-06
2.99623e-06
1.44324e-06
2.94233e-07
1.70973e-07
2.99629e-06
1.7097e-07
2.9967e-06
1.44285e-06
3.80521e-06
8.87676e-06
3.80504e-06
8.87657e-06
3.80525e-06
8.87773e-06
8.87748e-06
3.80517e-06
1.82803e-05
1.82824e-05
1.82818e-05
1.8284e-05
4.92329e-07
5.18583e-06
5.18774e-06
5.18598e-06
5.18786e-06
1.82824e-05
1.82803e-05
1.8284e-05
1.82819e-05
1.82799e-05
1.82815e-05
1.8281e-05
1.82834e-05
5.18629e-06
5.18758e-06
4.90919e-07
5.18575e-06
5.18742e-06
3.8052e-06
8.87674e-06
3.80529e-06
8.87699e-06
1.44272e-06
2.99619e-06
1.70962e-07
2.94309e-07
1.44311e-06
2.99565e-06
1.70962e-07
1.44275e-06
2.99655e-06
1.70985e-07
2.94333e-07
1.44315e-06
2.99625e-06
1.70986e-07
5.18754e-06
5.18573e-06
4.90885e-07
5.18744e-06
5.18562e-06
1.82783e-05
1.82805e-05
1.44293e-06
2.99672e-06
1.70992e-07
2.94251e-07
2.99622e-06
1.70983e-07
1.44342e-06
3.80522e-06
8.87683e-06
8.87706e-06
3.80531e-06
1.44287e-06
1.70999e-07
2.9967e-06
2.94336e-07
1.7099e-07
2.99615e-06
1.44336e-06
3.80517e-06
8.87644e-06
3.80526e-06
8.87668e-06
1.44324e-06
1.7097e-07
2.99623e-06
2.94275e-07
1.44309e-06
1.70971e-07
2.99602e-06
3.80511e-06
8.87648e-06
3.8052e-06
8.87671e-06
5.18767e-06
5.18597e-06
4.90946e-07
5.18739e-06
5.18572e-06
1.82801e-05
1.82822e-05
1.44286e-06
1.70977e-07
2.99671e-06
2.94222e-07
1.44324e-06
1.70983e-07
2.99647e-06
3.80505e-06
8.87652e-06
3.80519e-06
8.87677e-06
3.8052e-06
8.87748e-06
3.80525e-06
8.87772e-06
1.82803e-05
1.82824e-05
1.82819e-05
1.8284e-05
1.20898e-05
1.0686e-05
3.80543e-06
4.53745e-06
1.06855e-05
4.53742e-06
1.20905e-05
2.21435e-05
7.10027e-06
8.87606e-06
7.10013e-06
2.21391e-05
1.20904e-05
3.8052e-06
1.06855e-05
4.5374e-06
1.06859e-05
4.53742e-06
1.20896e-05
2.21394e-05
7.10012e-06
8.87599e-06
7.10025e-06
2.21435e-05
1.8283e-05
1.82808e-05
9.62275e-06
2.17136e-05
2.17132e-05
2.17107e-05
2.17102e-05
9.62252e-06
4.08933e-06
2.19121e-06
5.1858e-06
9.07695e-06
2.19094e-06
9.07722e-06
4.08948e-06
4.09597e-06
2.19267e-06
5.18771e-06
9.08193e-06
2.19242e-06
9.0822e-06
4.09612e-06
4.08946e-06
9.07725e-06
5.186e-06
2.19095e-06
2.19119e-06
9.07693e-06
4.08929e-06
4.0961e-06
9.08222e-06
5.18789e-06
2.19242e-06
2.19264e-06
9.08191e-06
4.09594e-06
9.62252e-06
2.17106e-05
2.17102e-05
2.17137e-05
2.17132e-05
9.62273e-06
1.20896e-05
3.80535e-06
1.06859e-05
4.53739e-06
1.06855e-05
4.53736e-06
1.20903e-05
2.21433e-05
7.10026e-06
8.87604e-06
2.2139e-05
7.09996e-06
1.20903e-05
3.8052e-06
1.06855e-05
4.53736e-06
1.20896e-05
1.06859e-05
4.53736e-06
2.21391e-05
7.09999e-06
8.87574e-06
7.10027e-06
2.21433e-05
1.8283e-05
1.82808e-05
1.209e-05
4.53757e-06
1.06866e-05
3.80545e-06
4.53746e-06
1.06862e-05
1.20906e-05
2.21432e-05
8.87766e-06
7.10169e-06
7.10172e-06
2.21392e-05
2.21393e-05
7.10173e-06
8.87742e-06
7.10169e-06
2.21432e-05
1.20906e-05
3.80533e-06
4.53748e-06
1.06862e-05
4.53753e-06
1.06866e-05
1.209e-05
1.82838e-05
1.82815e-05
9.62274e-06
2.17136e-05
2.17132e-05
2.17107e-05
2.17102e-05
9.6225e-06
4.08934e-06
2.19121e-06
9.07695e-06
5.18581e-06
4.08949e-06
2.19095e-06
9.07722e-06
4.09597e-06
2.19267e-06
9.08193e-06
5.18771e-06
4.09612e-06
2.19242e-06
9.0822e-06
9.62251e-06
2.17106e-05
2.17102e-05
9.62273e-06
2.17136e-05
2.17132e-05
4.08947e-06
9.07724e-06
5.18601e-06
2.19099e-06
2.19119e-06
9.07693e-06
4.08931e-06
4.09611e-06
9.08222e-06
5.1879e-06
2.19247e-06
2.19265e-06
9.08191e-06
4.09595e-06
1.20898e-05
1.0686e-05
4.53751e-06
3.80537e-06
1.06856e-05
4.5374e-06
1.20904e-05
2.21433e-05
8.87698e-06
7.10172e-06
7.1017e-06
2.21394e-05
2.21394e-05
7.10174e-06
8.87675e-06
7.10171e-06
2.21433e-05
1.20904e-05
3.80522e-06
1.06856e-05
4.53743e-06
1.0686e-05
4.53746e-06
1.20898e-05
1.20905e-05
1.06856e-05
3.80526e-06
4.53737e-06
1.20898e-05
1.0686e-05
4.53738e-06
2.21393e-05
7.09993e-06
8.87588e-06
2.21433e-05
7.10025e-06
1.20897e-05
3.80536e-06
1.06859e-05
4.53734e-06
1.20903e-05
1.06855e-05
4.53732e-06
2.21435e-05
7.10027e-06
8.87618e-06
2.21394e-05
7.10008e-06
1.20904e-05
1.06856e-05
4.53737e-06
3.80522e-06
1.20898e-05
1.06861e-05
4.53746e-06
2.21394e-05
8.87675e-06
7.10172e-06
7.10172e-06
2.21434e-05
2.21433e-05
7.10172e-06
8.87697e-06
2.21394e-05
7.10171e-06
1.20898e-05
3.80532e-06
1.0686e-05
4.53749e-06
1.06857e-05
4.53739e-06
1.20904e-05
9.62228e-06
2.17129e-05
2.17134e-05
2.171e-05
2.17104e-05
9.62206e-06
4.09578e-06
2.19249e-06
5.18738e-06
9.08174e-06
9.082e-06
2.19223e-06
4.09593e-06
4.08914e-06
2.19093e-06
5.18547e-06
9.0769e-06
2.19066e-06
9.07716e-06
4.08929e-06
4.09592e-06
9.08203e-06
5.18757e-06
2.19224e-06
9.08172e-06
2.19247e-06
4.09575e-06
4.08927e-06
9.07718e-06
5.18574e-06
2.19066e-06
2.1909e-06
9.07687e-06
4.0891e-06
9.62206e-06
2.17099e-05
2.17104e-05
2.1713e-05
2.17134e-05
9.62227e-06
1.82805e-05
1.82782e-05
1.82808e-05
1.8283e-05
9.62207e-06
2.171e-05
2.17105e-05
9.62227e-06
2.1713e-05
2.17134e-05
4.09599e-06
2.19227e-06
5.18757e-06
9.08203e-06
2.19249e-06
9.08172e-06
4.09576e-06
4.08933e-06
2.19067e-06
5.18574e-06
9.07719e-06
9.07687e-06
2.19091e-06
4.0891e-06
4.09579e-06
9.0817e-06
2.19245e-06
5.18737e-06
2.19224e-06
4.09594e-06
9.08201e-06
4.08914e-06
9.07685e-06
2.19087e-06
5.18546e-06
4.08928e-06
9.07716e-06
2.19065e-06
9.62226e-06
2.17129e-05
2.17134e-05
2.171e-05
2.17104e-05
9.62206e-06
1.82782e-05
1.82805e-05
1.20895e-05
4.53729e-06
1.06861e-05
3.80528e-06
4.53718e-06
1.06857e-05
1.20901e-05
2.21421e-05
8.87667e-06
7.10116e-06
7.10118e-06
2.21381e-05
2.21382e-05
7.10119e-06
8.87644e-06
7.10116e-06
2.21421e-05
1.20901e-05
3.80513e-06
4.53721e-06
1.06858e-05
4.53726e-06
1.06861e-05
1.20894e-05
1.20898e-05
1.0686e-05
4.53715e-06
3.80522e-06
1.06856e-05
4.53705e-06
1.20904e-05
2.21425e-05
8.87671e-06
7.09961e-06
7.0996e-06
2.21385e-05
2.21385e-05
7.0996e-06
8.87647e-06
7.0996e-06
2.21425e-05
1.20904e-05
3.80507e-06
1.06856e-05
4.53708e-06
1.0686e-05
4.53712e-06
1.20898e-05
1.20901e-05
4.53715e-06
1.06857e-05
3.8051e-06
1.20894e-05
4.53725e-06
1.06861e-05
2.21381e-05
8.87645e-06
7.10119e-06
7.10116e-06
2.21421e-05
2.21421e-05
7.10116e-06
8.87667e-06
2.21381e-05
7.10118e-06
1.20895e-05
3.80527e-06
4.53728e-06
1.06861e-05
4.53718e-06
1.06858e-05
1.20901e-05
1.20904e-05
1.06856e-05
4.53702e-06
3.80504e-06
1.20898e-05
1.0686e-05
4.53711e-06
2.21385e-05
8.87649e-06
7.0996e-06
7.0996e-06
2.21425e-05
2.21425e-05
7.0996e-06
8.87671e-06
2.21385e-05
7.09959e-06
1.20898e-05
3.80521e-06
1.0686e-05
4.53715e-06
1.06856e-05
4.53705e-06
1.20904e-05
1.20897e-05
1.06863e-05
3.80522e-06
4.53709e-06
4.53703e-06
1.06859e-05
1.20903e-05
2.21426e-05
7.09963e-06
8.87681e-06
7.09965e-06
2.21386e-05
1.20903e-05
3.80506e-06
4.53705e-06
1.06859e-05
4.53705e-06
1.06863e-05
1.20897e-05
2.21387e-05
7.09965e-06
8.87658e-06
7.09963e-06
2.21426e-05
1.20894e-05
4.53744e-06
1.06864e-05
3.80528e-06
4.53744e-06
1.0686e-05
1.20901e-05
2.21422e-05
8.87772e-06
7.10169e-06
7.10137e-06
2.2138e-05
2.2138e-05
7.10138e-06
8.87748e-06
7.10169e-06
2.21423e-05
1.20901e-05
3.80519e-06
4.53744e-06
1.0686e-05
4.53743e-06
1.06864e-05
1.20894e-05
1.20903e-05
1.06859e-05
3.80503e-06
4.53699e-06
1.20897e-05
4.53703e-06
1.06863e-05
2.21386e-05
7.09964e-06
8.87653e-06
7.09963e-06
2.21426e-05
1.20897e-05
3.80521e-06
4.53704e-06
1.06863e-05
4.537e-06
1.06859e-05
1.20903e-05
2.21426e-05
7.09964e-06
8.87679e-06
2.21386e-05
7.09965e-06
1.20901e-05
4.53739e-06
1.0686e-05
3.80516e-06
1.20894e-05
4.53739e-06
1.06864e-05
2.2138e-05
8.87749e-06
7.10138e-06
7.1017e-06
2.21423e-05
2.21422e-05
7.1017e-06
8.87772e-06
2.2138e-05
7.10138e-06
1.20894e-05
3.80526e-06
4.53744e-06
1.06864e-05
4.53742e-06
1.0686e-05
1.209e-05
1.82824e-05
1.82803e-05
1.8284e-05
1.82819e-05
9.62252e-06
2.17107e-05
2.17102e-05
9.62274e-06
2.17136e-05
2.17132e-05
4.08954e-06
2.19097e-06
5.186e-06
9.07724e-06
4.08929e-06
2.19119e-06
9.07693e-06
4.09617e-06
2.19244e-06
5.18789e-06
9.08222e-06
4.09594e-06
2.19265e-06
9.08191e-06
4.08934e-06
9.07691e-06
2.19115e-06
5.1858e-06
4.08949e-06
2.19093e-06
9.07722e-06
4.09598e-06
9.08189e-06
2.19261e-06
5.18771e-06
4.09612e-06
2.1924e-06
9.0822e-06
9.62273e-06
2.17136e-05
2.17132e-05
9.6225e-06
2.17107e-05
2.17102e-05
1.82803e-05
1.82824e-05
1.82819e-05
1.8284e-05
1.82818e-05
1.82794e-05
1.82834e-05
1.82813e-05
9.62166e-06
2.17125e-05
2.1713e-05
2.17096e-05
2.17097e-05
9.62141e-06
4.09033e-06
2.19132e-06
5.18577e-06
9.07845e-06
9.07799e-06
2.19084e-06
4.09122e-06
4.09533e-06
2.19247e-06
5.1874e-06
9.08072e-06
9.08169e-06
2.19236e-06
4.09536e-06
4.09037e-06
9.07772e-06
5.18593e-06
2.19085e-06
9.07745e-06
4.09013e-06
2.19102e-06
4.09581e-06
9.08212e-06
5.18761e-06
2.19248e-06
9.08165e-06
4.09569e-06
2.19268e-06
9.62138e-06
2.17104e-05
2.17094e-05
2.17129e-05
2.17126e-05
9.62178e-06
1.20898e-05
3.80534e-06
1.0686e-05
4.5375e-06
1.06856e-05
4.5374e-06
1.20904e-05
2.21433e-05
7.10172e-06
8.87698e-06
2.21394e-05
7.10171e-06
1.20904e-05
3.80517e-06
1.06856e-05
4.53736e-06
1.0686e-05
1.20898e-05
4.53746e-06
2.21394e-05
7.1017e-06
8.87674e-06
7.10172e-06
2.21433e-05
9.6223e-06
2.17129e-05
2.17134e-05
2.171e-05
2.17104e-05
9.62209e-06
4.0958e-06
2.19249e-06
9.08171e-06
5.18738e-06
9.08202e-06
4.09594e-06
2.19226e-06
4.08914e-06
2.19089e-06
9.07686e-06
5.18547e-06
2.19066e-06
4.08928e-06
9.07717e-06
9.62208e-06
2.171e-05
2.17105e-05
2.1713e-05
9.62228e-06
2.17134e-05
4.09594e-06
9.08203e-06
5.18757e-06
2.19235e-06
9.08173e-06
2.19253e-06
4.09578e-06
4.08927e-06
9.07719e-06
5.18575e-06
2.19076e-06
2.19092e-06
9.07688e-06
4.08911e-06
1.82805e-05
1.82782e-05
1.209e-05
1.06864e-05
4.53736e-06
3.80531e-06
1.0686e-05
4.53732e-06
1.20907e-05
2.21434e-05
8.87705e-06
7.10033e-06
7.10004e-06
2.21391e-05
2.21392e-05
7.10005e-06
8.87681e-06
7.10034e-06
2.21434e-05
1.20907e-05
3.80522e-06
1.0686e-05
4.53733e-06
1.06864e-05
4.53733e-06
1.209e-05
1.20895e-05
3.80528e-06
4.53729e-06
1.06861e-05
4.53718e-06
1.06858e-05
1.20901e-05
2.21421e-05
7.10116e-06
8.87668e-06
7.10118e-06
2.21382e-05
1.20901e-05
3.80511e-06
4.53715e-06
1.06857e-05
4.53725e-06
1.20894e-05
1.06861e-05
2.21382e-05
7.1012e-06
8.87644e-06
7.10116e-06
2.21421e-05
1.20898e-05
3.80522e-06
1.0686e-05
4.53715e-06
1.06856e-05
4.53705e-06
1.20904e-05
2.21425e-05
7.09961e-06
8.87672e-06
2.21385e-05
7.09958e-06
1.20904e-05
3.80505e-06
1.06856e-05
4.53702e-06
1.20898e-05
1.0686e-05
4.53711e-06
2.21385e-05
7.09958e-06
8.87648e-06
7.09961e-06
2.21425e-05
9.62309e-06
2.17138e-05
2.17139e-05
2.17109e-05
2.17109e-05
9.62285e-06
4.09615e-06
2.19264e-06
5.18739e-06
9.08167e-06
9.08199e-06
2.19241e-06
4.09628e-06
4.08944e-06
2.19117e-06
5.18572e-06
9.07694e-06
2.1909e-06
9.07716e-06
4.08962e-06
4.09625e-06
9.08203e-06
5.18764e-06
2.19243e-06
9.0817e-06
2.19263e-06
4.09611e-06
4.08963e-06
9.07718e-06
5.18591e-06
2.19093e-06
2.19116e-06
9.07688e-06
4.08943e-06
9.62289e-06
2.17106e-05
2.17109e-05
2.17139e-05
2.17139e-05
9.62313e-06
1.82822e-05
1.82801e-05
1.20896e-05
3.80521e-06
4.53704e-06
1.06862e-05
4.53699e-06
1.06858e-05
1.20903e-05
2.21426e-05
7.09962e-06
8.87676e-06
7.09963e-06
2.21386e-05
1.20903e-05
3.80503e-06
4.53696e-06
1.06859e-05
4.537e-06
1.20896e-05
1.06862e-05
2.21387e-05
7.09964e-06
8.87653e-06
7.09962e-06
2.21426e-05
1.20894e-05
3.80528e-06
4.53742e-06
1.06864e-05
4.5374e-06
1.0686e-05
1.20901e-05
2.21422e-05
7.1017e-06
8.87772e-06
2.2138e-05
7.10138e-06
1.20901e-05
3.80518e-06
4.53737e-06
1.0686e-05
1.20894e-05
4.5374e-06
1.06864e-05
2.2138e-05
7.10137e-06
8.87748e-06
7.1017e-06
2.21422e-05
1.82824e-05
1.82803e-05
1.8284e-05
1.82819e-05
9.19234e-08
9.19182e-08
1.21456e-07
9.19236e-08
9.19204e-08
7.90067e-08
7.90068e-08
2.00657e-06
1.0207e-06
1.02104e-06
4.91114e-07
1.01949e-06
1.01983e-06
2.00702e-06
9.19211e-08
9.19203e-08
1.21456e-07
9.19214e-08
9.19213e-08
7.90066e-08
7.90068e-08
2.00657e-06
1.0207e-06
1.02103e-06
4.9115e-07
2.00702e-06
1.0195e-06
1.01982e-06
2.0065e-06
1.02096e-06
1.02063e-06
4.91e-07
1.01941e-06
1.01975e-06
2.00695e-06
2.00702e-06
4.92451e-07
1.01982e-06
1.01947e-06
1.02089e-06
1.02054e-06
2.00642e-06
2.00709e-06
4.92429e-07
1.01957e-06
1.0199e-06
2.0065e-06
1.02062e-06
1.02095e-06
2.00662e-06
1.0207e-06
1.02104e-06
4.91033e-07
1.01941e-06
1.01996e-06
2.00705e-06
2.00649e-06
1.02082e-06
1.02047e-06
4.9098e-07
1.01941e-06
2.00695e-06
1.01976e-06
2.00665e-06
1.02103e-06
1.02073e-06
4.91083e-07
1.01954e-06
1.01983e-06
2.0071e-06
9.19277e-08
9.1916e-08
1.21453e-07
9.19292e-08
9.19171e-08
7.90087e-08
7.90092e-08
9.19278e-08
9.19266e-08
1.21475e-07
9.19277e-08
9.19281e-08
7.90123e-08
7.90128e-08
9.1926e-08
9.19226e-08
1.2146e-07
9.19269e-08
9.19235e-08
7.90106e-08
7.9011e-08
1.21458e-07
9.19217e-08
9.19199e-08
9.19232e-08
9.19201e-08
7.90088e-08
7.90085e-08
1.21454e-07
9.19278e-08
9.1917e-08
9.19289e-08
9.19167e-08
7.90107e-08
7.90106e-08
1.21475e-07
9.19255e-08
9.19258e-08
9.19278e-08
9.19277e-08
7.90142e-08
7.90141e-08
1.21461e-07
9.19267e-08
9.19222e-08
9.19269e-08
9.19232e-08
7.90125e-08
7.90124e-08
6.5026e-07
1.74315e-06
5.36413e-07
1.44309e-06
1.74372e-06
5.37322e-07
6.48614e-07
8.73057e-07
1.28164e-06
2.99546e-06
2.32361e-06
1.28049e-06
2.32289e-06
8.74627e-07
8.74595e-07
2.3229e-06
2.99602e-06
1.28056e-06
1.28156e-06
2.32357e-06
8.73014e-07
6.4867e-07
1.44264e-06
1.74376e-06
5.37377e-07
1.74315e-06
5.36381e-07
6.50203e-07
6.5034e-07
5.36509e-07
1.44318e-06
1.74309e-06
5.37416e-07
1.74362e-06
6.48703e-07
8.73139e-07
1.28186e-06
2.32326e-06
2.99572e-06
2.3226e-06
8.74675e-07
1.28072e-06
6.48761e-07
1.44272e-06
5.37471e-07
1.74367e-06
5.36478e-07
1.74306e-06
6.50283e-07
8.74653e-07
2.32262e-06
2.99627e-06
1.2808e-06
2.32323e-06
8.73109e-07
1.28179e-06
2.00696e-06
4.92582e-07
1.01955e-06
1.01989e-06
1.02061e-06
1.02096e-06
2.0065e-06
9.19287e-08
9.19184e-08
1.21453e-07
9.1928e-08
9.19184e-08
7.90091e-08
7.90094e-08
9.193e-08
9.19282e-08
1.21479e-07
9.193e-08
9.19274e-08
7.90134e-08
7.90137e-08
9.19286e-08
9.19236e-08
1.21464e-07
9.1929e-08
9.19233e-08
7.90113e-08
7.90114e-08
6.50266e-07
1.44309e-06
1.74365e-06
5.36436e-07
1.7437e-06
5.37327e-07
6.48607e-07
8.73053e-07
1.28163e-06
2.32361e-06
2.99546e-06
8.74617e-07
1.28049e-06
2.32289e-06
6.48673e-07
1.44264e-06
1.74375e-06
5.37378e-07
6.5021e-07
1.74314e-06
5.36385e-07
8.74591e-07
2.32324e-06
2.99602e-06
1.28058e-06
1.28156e-06
2.32358e-06
8.73036e-07
6.50328e-07
1.44317e-06
5.36504e-07
1.74306e-06
5.37412e-07
1.74362e-06
6.48683e-07
8.73117e-07
1.28184e-06
2.32327e-06
2.99569e-06
8.74678e-07
1.2807e-06
2.32259e-06
6.48743e-07
1.4427e-06
5.37466e-07
1.74365e-06
6.50269e-07
5.36473e-07
1.74305e-06
8.74647e-07
2.3226e-06
2.99621e-06
1.28078e-06
1.28177e-06
2.32323e-06
8.73074e-07
2.00697e-06
4.92714e-07
1.01956e-06
1.01988e-06
1.02063e-06
1.02096e-06
2.00693e-06
6.50281e-07
5.36441e-07
1.44319e-06
1.74323e-06
1.74374e-06
5.37352e-07
6.48648e-07
8.73121e-07
1.28192e-06
2.3234e-06
2.99574e-06
2.32275e-06
8.74641e-07
1.28089e-06
6.48688e-07
1.44272e-06
1.74374e-06
5.37398e-07
1.74317e-06
5.36406e-07
6.502e-07
8.74679e-07
2.32286e-06
2.99643e-06
1.2812e-06
2.32344e-06
8.73162e-07
1.28211e-06
6.5039e-07
1.74341e-06
5.36471e-07
1.44321e-06
1.74396e-06
5.3739e-07
6.48743e-07
8.73375e-07
1.28229e-06
2.99608e-06
2.32404e-06
2.32334e-06
1.28115e-06
8.74916e-07
8.74894e-07
2.32336e-06
2.99659e-06
1.28122e-06
2.324e-06
8.73333e-07
1.28222e-06
6.48802e-07
1.44276e-06
1.744e-06
5.3744e-07
1.7434e-06
5.36447e-07
6.50331e-07
6.48687e-07
5.37338e-07
1.4427e-06
1.74374e-06
6.50225e-07
1.74316e-06
5.36401e-07
8.74753e-07
1.28101e-06
2.32277e-06
2.99628e-06
2.32343e-06
8.7315e-07
1.28191e-06
6.50153e-07
1.44316e-06
1.74316e-06
5.36435e-07
1.74372e-06
5.3735e-07
6.48621e-07
8.73183e-07
2.32348e-06
1.28208e-06
2.99577e-06
8.74755e-07
2.3228e-06
1.28087e-06
6.48803e-07
1.74392e-06
5.37375e-07
1.44273e-06
6.50332e-07
1.74334e-06
5.36441e-07
8.74958e-07
1.28123e-06
2.99659e-06
2.32332e-06
2.32397e-06
1.28222e-06
8.73362e-07
8.73372e-07
2.32395e-06
1.28214e-06
2.99607e-06
8.74909e-07
2.32329e-06
1.28115e-06
6.50277e-07
1.44319e-06
1.74338e-06
5.36474e-07
1.74393e-06
5.37394e-07
6.48743e-07
2.0069e-06
4.92512e-07
1.01981e-06
1.01947e-06
1.02054e-06
1.02088e-06
2.00642e-06
2.0065e-06
4.90753e-07
1.02081e-06
1.02047e-06
1.01975e-06
2.00695e-06
1.0194e-06
6.50299e-07
5.36432e-07
1.74317e-06
1.44312e-06
5.37344e-07
1.74373e-06
6.48653e-07
8.73144e-07
1.28191e-06
2.99573e-06
2.32344e-06
1.28077e-06
2.32273e-06
8.74691e-07
8.74663e-07
2.32274e-06
2.99626e-06
1.28084e-06
1.28183e-06
2.32339e-06
8.73104e-07
6.48719e-07
1.44267e-06
5.37398e-07
1.74378e-06
5.36404e-07
1.74318e-06
6.50246e-07
6.48671e-07
1.74368e-06
5.37308e-07
1.44263e-06
6.50203e-07
1.74311e-06
5.36379e-07
8.74658e-07
1.28056e-06
2.99602e-06
2.32291e-06
8.73039e-07
1.28155e-06
2.32357e-06
8.73052e-07