/*--------------------------------*- C++ -*----------------------------------*\
| =========                 |                                                 |
| \\      /  F ield         | OpenFOAM: The Open Source CFD Toolbox           |
|  \\    /   O peration     | Version:  v1912                                 |
|   \\  /    A nd           | Website:  www.openfoam.com                      |
|    \\/     M anipulation  |                                                 |
\*---------------------------------------------------------------------------*/
FoamFile
{
    version     2.0;
    format      ascii;
    class       volScalarField;
    location    "120";
    object      k;
}
// * * * * * * * * * * * * * * * * * * * * * * * * * * * * * * * * * * * * * //

dimensions      [0 2 -2 0 0 0 0];


internalField   nonuniform List<scalar> 
57566
(
6.91661e-05
3.57427e-05
1.72987e-05
1.42538e-05
4.93947e-05
2.14892e-05
6.09297e-05
6.09399e-05
6.91584e-05
6.91621e-05
2.1527e-05
6.0923e-05
6.09348e-05
5.66887e-05
6.98647e-05
5.66888e-05
6.98707e-05
3.57503e-05
1.73029e-05
4.93922e-05
1.4252e-05
3.5751e-05
1.73035e-05
4.94005e-05
1.42525e-05
6.91617e-05
2.15255e-05
6.09343e-05
6.09216e-05
6.91577e-05
5.66942e-05
6.98675e-05
3.57442e-05
1.72988e-05
1.42531e-05
4.93937e-05
5.66888e-05
6.98719e-05
3.57514e-05
1.73027e-05
4.94005e-05
1.42529e-05
5.66853e-05
6.98649e-05
3.57475e-05
1.73015e-05
1.42529e-05
4.9393e-05
3.5742e-05
1.7299e-05
1.42532e-05
4.93966e-05
5.66927e-05
6.98685e-05
3.57472e-05
1.73009e-05
4.93897e-05
1.42524e-05
5.66863e-05
6.98683e-05
3.57453e-05
1.73017e-05
1.4253e-05
4.93943e-05
5.66844e-05
6.9866e-05
2.14897e-05
6.09335e-05
6.0927e-05
6.91655e-05
6.91594e-05
2.15216e-05
6.09291e-05
6.09219e-05
6.91592e-05
3.57443e-05
1.7299e-05
1.42542e-05
4.94005e-05
5.6692e-05
6.98681e-05
5.66938e-05
6.98733e-05
3.57461e-05
1.73013e-05
1.42536e-05
4.93919e-05
3.57479e-05
1.73017e-05
1.4254e-05
4.93981e-05
5.6683e-05
6.98656e-05
5.6685e-05
6.98708e-05
6.91659e-05
6.9168e-05
2.15211e-05
6.0925e-05
6.09348e-05
6.91596e-05
6.91617e-05
6.91616e-05
8.81836e-05
7.20006e-05
7.19951e-05
7.19952e-05
7.19896e-05
8.81845e-05
6.02613e-05
6.90139e-05
6.09309e-05
4.45551e-05
4.45546e-05
6.90136e-05
6.02611e-05
6.03244e-05
6.90266e-05
6.09409e-05
4.45709e-05
4.45704e-05
6.90263e-05
6.03242e-05
6.91631e-05
6.91667e-05
8.81792e-05
7.19942e-05
7.1988e-05
8.81778e-05
7.19998e-05
7.19942e-05
6.02584e-05
6.90115e-05
4.45516e-05
6.09218e-05
6.02582e-05
6.9012e-05
4.45523e-05
6.03175e-05
6.90243e-05
4.45657e-05
6.09345e-05
6.03174e-05
6.90247e-05
4.45652e-05
6.96958e-05
6.92307e-05
6.16482e-05
5.66886e-05
6.96944e-05
6.92312e-05
6.16497e-05
7.03741e-05
7.44212e-05
6.98648e-05
7.03665e-05
7.4425e-05
6.96975e-05
6.92312e-05
6.16524e-05
5.66886e-05
6.96962e-05
6.92317e-05
6.16541e-05
7.03765e-05
7.44429e-05
6.98709e-05
7.03692e-05
7.4447e-05
6.91661e-05
8.81795e-05
7.19887e-05
7.19935e-05
8.8178e-05
7.19944e-05
7.19992e-05
6.03168e-05
6.90236e-05
4.45642e-05
6.09337e-05
4.45647e-05
6.03167e-05
6.90241e-05
6.02548e-05
6.9011e-05
4.45488e-05
6.09207e-05
6.02545e-05
6.90115e-05
4.45492e-05
6.91625e-05
6.96968e-05
5.66958e-05
6.92342e-05
6.16527e-05
6.9234e-05
6.16524e-05
6.96978e-05
7.03674e-05
7.4427e-05
6.98676e-05
7.44241e-05
7.0375e-05
6.96979e-05
6.1653e-05
6.92322e-05
5.66885e-05
6.96966e-05
6.16547e-05
6.92326e-05
7.03768e-05
7.44425e-05
6.98721e-05
7.03695e-05
7.44467e-05
6.96953e-05
6.92311e-05
6.16432e-05
5.66852e-05
6.96939e-05
6.92315e-05
6.16445e-05
7.03729e-05
7.44178e-05
6.98651e-05
7.03649e-05
7.44215e-05
6.9697e-05
5.66944e-05
6.92337e-05
6.16537e-05
6.92335e-05
6.16529e-05
6.96979e-05
7.03681e-05
7.44279e-05
6.98686e-05
7.44245e-05
7.03751e-05
6.9697e-05
6.16502e-05
6.92313e-05
5.66861e-05
6.96956e-05
6.1652e-05
6.92318e-05
7.03754e-05
7.44386e-05
6.98685e-05
7.0368e-05
7.44428e-05
6.96954e-05
6.92306e-05
6.16441e-05
5.66843e-05
6.96941e-05
6.92311e-05
6.16458e-05
7.0373e-05
7.44182e-05
6.98661e-05
7.03656e-05
7.44223e-05
8.81864e-05
7.19952e-05
7.20009e-05
7.19897e-05
7.19954e-05
8.81873e-05
6.0325e-05
6.90248e-05
6.09349e-05
4.45709e-05
6.90245e-05
4.45716e-05
6.03248e-05
6.02641e-05
6.90138e-05
6.09282e-05
4.45538e-05
4.45533e-05
6.90135e-05
6.02638e-05
6.91613e-05
6.91642e-05
8.81832e-05
7.19877e-05
7.19935e-05
8.81816e-05
7.19935e-05
7.19992e-05
6.03203e-05
6.90219e-05
4.45663e-05
6.09282e-05
4.45662e-05
6.03201e-05
6.90224e-05
6.02592e-05
6.90109e-05
4.45484e-05
6.09214e-05
6.02592e-05
6.90114e-05
4.4549e-05
6.91636e-05
6.96968e-05
5.66935e-05
6.1652e-05
6.92341e-05
6.16511e-05
6.9234e-05
6.96977e-05
7.03683e-05
7.44269e-05
6.98682e-05
7.44234e-05
7.03753e-05
6.96984e-05
5.66955e-05
6.16576e-05
6.92348e-05
6.16567e-05
6.92347e-05
6.96993e-05
7.03702e-05
7.44473e-05
6.98734e-05
7.44438e-05
7.03771e-05
6.96952e-05
6.16422e-05
6.9231e-05
5.66829e-05
6.96939e-05
6.1644e-05
6.92314e-05
7.03731e-05
7.44171e-05
6.98658e-05
7.03658e-05
7.44213e-05
6.96968e-05
6.16478e-05
6.92317e-05
5.66849e-05
6.96955e-05
6.16496e-05
6.92321e-05
7.0375e-05
7.44374e-05
6.98709e-05
7.03677e-05
7.44416e-05
6.91617e-05
6.91638e-05
8.81805e-05
7.19932e-05
7.19877e-05
8.81789e-05
7.19989e-05
7.19934e-05
6.02568e-05
6.9011e-05
4.45499e-05
6.09244e-05
6.02565e-05
4.45509e-05
6.90115e-05
6.032e-05
6.90237e-05
4.45657e-05
6.09346e-05
6.03196e-05
4.45667e-05
6.90242e-05
6.91641e-05
6.91661e-05
1.30995e-05
1.24926e-05
1.24928e-05
1.24259e-05
1.30998e-05
1.24928e-05
1.24929e-05
1.24259e-05
1.30934e-05
1.24787e-05
1.24789e-05
1.24035e-05
1.30931e-05
1.24786e-05
1.24788e-05
1.24035e-05
1.30936e-05
1.24794e-05
1.24796e-05
1.24039e-05
1.30938e-05
1.24795e-05
1.24796e-05
1.24039e-05
2.39085e-05
3.57531e-05
2.17837e-05
3.94147e-05
2.18043e-05
3.94244e-05
2.38776e-05
2.76547e-05
4.48763e-05
4.93985e-05
3.37613e-05
3.37807e-05
4.48881e-05
2.76272e-05
4.35872e-05
2.15213e-05
3.0668e-05
3.06743e-05
3.06913e-05
3.06978e-05
4.35795e-05
4.35773e-05
2.14954e-05
3.0694e-05
3.07005e-05
4.35855e-05
3.06715e-05
3.06769e-05
2.38781e-05
3.94217e-05
2.18145e-05
3.57422e-05
2.39101e-05
3.94133e-05
2.17966e-05
2.76281e-05
4.48796e-05
3.37825e-05
4.93882e-05
3.37655e-05
2.7656e-05
4.48691e-05
2.38812e-05
3.9426e-05
2.18155e-05
3.57434e-05
2.39132e-05
3.9418e-05
2.17976e-05
2.76334e-05
4.48901e-05
3.37954e-05
4.93966e-05
2.76614e-05
4.48798e-05
3.37741e-05
4.35752e-05
2.14937e-05
3.0698e-05
3.06929e-05
3.06748e-05
4.35834e-05
3.06697e-05
2.39087e-05
3.57549e-05
2.17916e-05
3.94162e-05
2.18093e-05
3.9426e-05
2.38776e-05
2.76554e-05
4.48753e-05
4.93994e-05
3.37656e-05
4.48877e-05
2.76277e-05
3.3785e-05
2.3882e-05
3.94267e-05
2.1816e-05
3.5742e-05
2.39141e-05
3.94186e-05
2.17974e-05
2.76325e-05
4.48895e-05
3.37885e-05
4.93962e-05
3.37709e-05
2.76609e-05
4.48791e-05
2.38844e-05
2.18113e-05
3.94193e-05
3.57399e-05
2.39103e-05
2.17952e-05
3.94115e-05
2.76315e-05
4.48787e-05
3.37784e-05
4.93894e-05
2.76554e-05
4.48694e-05
3.3767e-05
2.39083e-05
3.57521e-05
2.17902e-05
3.94158e-05
2.18077e-05
3.94258e-05
2.38773e-05
2.76555e-05
4.48774e-05
4.94008e-05
3.37636e-05
3.37803e-05
4.489e-05
2.7628e-05
2.38786e-05
3.94213e-05
2.18131e-05
3.57391e-05
2.39107e-05
3.94133e-05
2.1795e-05
2.76281e-05
4.48844e-05
3.378e-05
4.9386e-05
2.76562e-05
3.37619e-05
4.48738e-05
2.38841e-05
2.181e-05
3.94191e-05
3.57381e-05
2.39101e-05
2.17939e-05
3.94112e-05
2.76319e-05
4.4881e-05
3.37763e-05
4.9391e-05
2.76556e-05
4.48715e-05
3.37652e-05
4.35881e-05
2.15213e-05
3.0673e-05
3.06689e-05
3.06923e-05
3.06967e-05
4.35806e-05
4.35784e-05
2.14915e-05
3.06898e-05
3.06854e-05
3.06755e-05
4.3584e-05
3.06714e-05
2.39123e-05
3.5755e-05
2.17934e-05
3.94203e-05
2.1811e-05
3.94302e-05
2.38813e-05
2.76594e-05
4.48838e-05
4.94045e-05
3.37684e-05
3.3787e-05
4.48961e-05
2.76317e-05
2.38843e-05
2.18042e-05
3.94181e-05
3.57388e-05
2.39104e-05
2.17881e-05
3.94102e-05
2.76312e-05
4.48801e-05
3.37741e-05
4.9389e-05
2.7655e-05
3.3763e-05
4.48712e-05
2.3888e-05
2.18132e-05
3.94236e-05
3.57405e-05
2.39141e-05
2.17969e-05
3.94156e-05
2.76355e-05
4.48872e-05
3.37811e-05
4.93951e-05
2.76595e-05
4.48778e-05
3.37698e-05
4.35774e-05
2.14911e-05
3.06846e-05
3.0691e-05
4.35829e-05
3.06708e-05
3.0677e-05
6.91584e-05
6.91597e-05
2.15879e-05
6.09281e-05
6.09367e-05
5.66734e-05
6.98642e-05
5.66741e-05
3.57734e-05
1.73768e-05
4.94099e-05
1.43018e-05
3.57744e-05
1.43024e-05
5.66766e-05
6.98692e-05
3.57774e-05
1.73764e-05
4.94149e-05
1.43027e-05
5.66737e-05
6.98637e-05
3.57757e-05
1.73769e-05
1.43026e-05
4.94105e-05
6.9158e-05
2.15874e-05
6.09323e-05
6.09266e-05
6.9158e-05
3.57723e-05
1.73768e-05
1.43031e-05
4.94105e-05
3.57752e-05
1.43032e-05
5.66708e-05
6.98645e-05
5.66736e-05
6.91637e-05
6.91651e-05
8.81744e-05
7.199e-05
7.1986e-05
8.81704e-05
7.19966e-05
7.19925e-05
6.02784e-05
6.90136e-05
4.45796e-05
6.09284e-05
6.0277e-05
6.90149e-05
4.45797e-05
6.03299e-05
6.90224e-05
4.45929e-05
6.0937e-05
6.03276e-05
6.90238e-05
4.45929e-05
6.9692e-05
6.92242e-05
6.16398e-05
5.66747e-05
6.96894e-05
6.92259e-05
6.16428e-05
7.03726e-05
7.44183e-05
6.98652e-05
7.03636e-05
7.44233e-05
6.96941e-05
6.92247e-05
6.16463e-05
5.66754e-05
6.96916e-05
6.92264e-05
6.16496e-05
6.96945e-05
6.16471e-05
6.92264e-05
5.6678e-05
6.96921e-05
6.16505e-05
6.9228e-05
7.03745e-05
7.44372e-05
6.98704e-05
7.03661e-05
7.44433e-05
6.96921e-05
6.92255e-05
6.16381e-05
5.66752e-05
6.96896e-05
6.92271e-05
6.16412e-05
7.03718e-05
7.44157e-05
6.98648e-05
7.03629e-05
7.44211e-05
6.91638e-05
8.81873e-05
7.19871e-05
7.19927e-05
8.81839e-05
7.19937e-05
7.19993e-05
6.03296e-05
6.90219e-05
4.45898e-05
6.09324e-05
4.45897e-05
6.03273e-05
6.90232e-05
6.02681e-05
6.90111e-05
4.45743e-05
6.09268e-05
6.02658e-05
6.90124e-05
4.45743e-05
6.91634e-05
6.96917e-05
6.16364e-05
6.92246e-05
5.6672e-05
6.96891e-05
6.16396e-05
6.92263e-05
7.03722e-05
7.44154e-05
6.98656e-05
7.03638e-05
7.44213e-05
6.96928e-05
6.16415e-05
6.92255e-05
5.66751e-05
6.96902e-05
6.16444e-05
6.92272e-05
1.31171e-05
1.24763e-05
1.24765e-05
1.2374e-05
1.24766e-05
1.23743e-05
1.31179e-05
1.24768e-05
1.24773e-05
1.23743e-05
1.2477e-05
1.23743e-05
4.36102e-05
2.15566e-05
3.07394e-05
3.07474e-05
4.36141e-05
3.07203e-05
3.07279e-05
2.39421e-05
3.94464e-05
2.18702e-05
3.57666e-05
2.39709e-05
3.94389e-05
2.1849e-05
2.7679e-05
4.48984e-05
3.38183e-05
4.94081e-05
3.38062e-05
2.77028e-05
4.4891e-05
2.3944e-05
3.94512e-05
2.18711e-05
3.57675e-05
2.39735e-05
3.94431e-05
2.185e-05
2.39463e-05
3.9453e-05
2.18736e-05
3.57705e-05
2.39752e-05
3.94454e-05
2.18526e-05
2.76829e-05
4.49072e-05
3.38227e-05
4.94131e-05
3.38088e-05
2.77069e-05
4.49001e-05
2.39444e-05
2.18729e-05
3.94477e-05
3.5769e-05
2.39731e-05
2.1852e-05
3.94402e-05
2.76801e-05
4.48982e-05
3.38215e-05
4.94084e-05
2.7704e-05
4.48909e-05
3.38085e-05
4.36084e-05
2.15557e-05
3.07446e-05
3.07402e-05
3.07251e-05
4.36125e-05
3.07209e-05
2.39436e-05
2.18719e-05
3.94447e-05
3.57654e-05
2.39724e-05
2.1851e-05
3.94372e-05
2.76793e-05
4.48973e-05
3.38169e-05
4.94088e-05
2.77032e-05
3.38034e-05
4.48902e-05
2.39444e-05
2.18727e-05
3.94493e-05
3.57686e-05
2.39738e-05
2.18518e-05
3.94412e-05
1.3117e-05
1.73747e-05
1.7377e-05
2.15948e-05
1.3117e-05
1.73751e-05
1.7377e-05
2.15952e-05
1.73768e-05
1.73774e-05
1.7378e-05
1.73773e-05
2.15941e-05
2.15596e-05
1.7377e-05
1.73749e-05
1.73771e-05
1.73766e-05
1.73771e-05
1.73768e-05
2.15613e-05
2.15943e-05
1.73768e-05
1.73767e-05
2.15927e-05
1.73764e-05
1.73765e-05
1.73767e-05
2.15947e-05
1.73765e-05
5.66763e-05
6.98643e-05
5.66735e-05
6.98657e-05
6.916e-05
6.91654e-05
1.31171e-05
1.31177e-05
1.31175e-05
1.3117e-05
1.31171e-05
1.31178e-05
1.31176e-05
3.57656e-05
4.94073e-05
1.43021e-05
1.73744e-05
4.94055e-05
1.43021e-05
3.57722e-05
3.57663e-05
1.43032e-05
4.94113e-05
1.73773e-05
1.43031e-05
3.57729e-05
4.941e-05
6.09292e-05
6.09407e-05
2.1555e-05
6.09304e-05
6.09421e-05
5.66759e-05
6.98643e-05
5.66732e-05
6.98654e-05
6.916e-05
6.91654e-05
5.66793e-05
6.98691e-05
6.98704e-05
5.66764e-05
1.31172e-05
1.31179e-05
1.31177e-05
3.57652e-05
4.94072e-05
1.43022e-05
1.7375e-05
3.57721e-05
4.94055e-05
1.43021e-05
6.9158e-05
6.91637e-05
3.57663e-05
1.43032e-05
4.94108e-05
1.7377e-05
3.57727e-05
1.43031e-05
4.94096e-05
6.09293e-05
6.09407e-05
2.15591e-05
6.09301e-05
6.09417e-05
5.66765e-05
6.98688e-05
6.987e-05
5.66738e-05
3.57676e-05
4.94109e-05
1.43019e-05
1.73782e-05
1.4302e-05
3.57741e-05
4.94119e-05
3.57683e-05
4.94155e-05
1.43025e-05
1.73771e-05
4.94149e-05
1.43024e-05
3.57752e-05
5.66717e-05
6.98655e-05
5.66758e-05
6.98643e-05
5.6672e-05
6.987e-05
6.98687e-05
5.66765e-05
3.57722e-05
1.73776e-05
4.94114e-05
1.4302e-05
1.4302e-05
3.57671e-05
4.94119e-05
3.57729e-05
1.73772e-05
4.94146e-05
1.43024e-05
4.94135e-05
1.43025e-05
3.57682e-05
6.0938e-05
6.09229e-05
2.15546e-05
6.09393e-05
6.09238e-05
6.91556e-05
6.91613e-05
6.91654e-05
6.91601e-05
2.15844e-05
6.09395e-05
6.09239e-05
6.0937e-05
6.09218e-05
6.91613e-05
6.91557e-05
5.66749e-05
6.98666e-05
6.98678e-05
5.66722e-05
3.57665e-05
1.43027e-05
4.94111e-05
1.73765e-05
1.43025e-05
4.94106e-05
3.57735e-05
5.66741e-05
6.98645e-05
6.98658e-05
5.66715e-05
3.57702e-05
1.73746e-05
4.94059e-05
1.43021e-05
4.94058e-05
1.43021e-05
3.57661e-05
5.66705e-05
6.98679e-05
6.98665e-05
5.66749e-05
3.57711e-05
1.73768e-05
1.43025e-05
4.94113e-05
1.43025e-05
4.94108e-05
3.57663e-05
5.66697e-05
6.98658e-05
6.98645e-05
5.66741e-05
3.57691e-05
1.43033e-05
4.94159e-05
1.7376e-05
1.43033e-05
4.94159e-05
3.5776e-05
5.66733e-05
6.98646e-05
5.66707e-05
6.98656e-05
5.66763e-05
6.98688e-05
6.987e-05
5.66735e-05
3.57709e-05
1.73781e-05
1.43031e-05
4.94099e-05
1.43031e-05
3.57666e-05
4.94093e-05
3.57736e-05
1.73763e-05
1.43033e-05
4.94146e-05
1.43033e-05
4.94144e-05
3.5769e-05
5.66689e-05
6.98656e-05
5.66731e-05
6.98644e-05
5.66718e-05
6.987e-05
6.98687e-05
5.66763e-05
6.91582e-05
6.91636e-05
6.91604e-05
6.91658e-05
2.15849e-05
6.09305e-05
6.0942e-05
6.09281e-05
6.09396e-05
6.91636e-05
6.91583e-05
6.91658e-05
6.91606e-05
6.91585e-05
6.91637e-05
6.91597e-05
6.91651e-05
6.09285e-05
6.09365e-05
2.15576e-05
6.09293e-05
6.0938e-05
5.66766e-05
6.98687e-05
5.6672e-05
6.987e-05
3.57674e-05
4.94102e-05
1.43018e-05
1.73768e-05
3.57715e-05
4.94089e-05
1.43018e-05
3.57684e-05
4.94151e-05
1.43024e-05
1.73767e-05
3.57726e-05
4.9415e-05
1.43024e-05
6.09372e-05
6.09219e-05
2.15566e-05
6.09392e-05
6.09236e-05
6.91557e-05
6.91614e-05
3.57715e-05
4.94145e-05
1.43029e-05
1.73764e-05
4.94139e-05
1.43027e-05
3.57779e-05
5.66764e-05
6.98637e-05
6.98649e-05
5.66735e-05
3.57701e-05
1.43028e-05
4.94106e-05
1.73769e-05
1.43026e-05
4.94092e-05
3.57765e-05
5.66747e-05
6.98666e-05
5.66705e-05
6.98678e-05
3.57663e-05
1.43023e-05
4.9412e-05
1.73768e-05
3.57709e-05
1.43024e-05
4.94112e-05
5.66738e-05
6.98645e-05
5.66698e-05
6.98657e-05
6.09322e-05
6.09268e-05
2.15576e-05
6.09332e-05
6.09278e-05
6.91581e-05
6.91634e-05
3.57694e-05
1.43032e-05
4.94154e-05
1.73766e-05
3.57735e-05
1.43032e-05
4.94149e-05
5.66732e-05
6.98643e-05
5.66688e-05
6.98656e-05
5.66764e-05
6.98687e-05
5.66718e-05
6.987e-05
6.91583e-05
6.91636e-05
6.91605e-05
6.91658e-05
6.96894e-05
6.92259e-05
5.66728e-05
6.16441e-05
6.92241e-05
6.16394e-05
6.9692e-05
7.03724e-05
7.44177e-05
6.98655e-05
7.44232e-05
7.03637e-05
6.9692e-05
5.66751e-05
6.92242e-05
6.16399e-05
6.92259e-05
6.16433e-05
6.96894e-05
7.03637e-05
7.44236e-05
6.98643e-05
7.44175e-05
7.03724e-05
6.91655e-05
6.91601e-05
8.81834e-05
7.19992e-05
7.19936e-05
7.19926e-05
7.19871e-05
8.81862e-05
6.02665e-05
4.45751e-05
6.09299e-05
6.90109e-05
4.45752e-05
6.90123e-05
6.02638e-05
6.03299e-05
4.45909e-05
6.09415e-05
6.9024e-05
4.45911e-05
6.90253e-05
6.03271e-05
6.02629e-05
6.90124e-05
6.09286e-05
4.45766e-05
4.45744e-05
6.90108e-05
6.02655e-05
6.03263e-05
6.90254e-05
6.09401e-05
4.45922e-05
4.45899e-05
6.90238e-05
6.03288e-05
8.81865e-05
7.19926e-05
7.19871e-05
7.19992e-05
7.19937e-05
8.81831e-05
6.96894e-05
5.66723e-05
6.92259e-05
6.16438e-05
6.92242e-05
6.1639e-05
6.9692e-05
7.03725e-05
7.44183e-05
6.98654e-05
7.03636e-05
7.44235e-05
6.9692e-05
5.66749e-05
6.92242e-05
6.16399e-05
6.96894e-05
6.92259e-05
6.1643e-05
7.03637e-05
7.44239e-05
6.98641e-05
7.4418e-05
7.03726e-05
6.91655e-05
6.91601e-05
6.96921e-05
6.16515e-05
6.9228e-05
5.66755e-05
6.16464e-05
6.92264e-05
6.96945e-05
7.03745e-05
6.98703e-05
7.44372e-05
7.44433e-05
7.03661e-05
7.03661e-05
7.44436e-05
6.98691e-05
7.44369e-05
7.03745e-05
6.96946e-05
5.66783e-05
6.1647e-05
6.92264e-05
6.16508e-05
6.9228e-05
6.96921e-05
6.91638e-05
6.9158e-05
8.81834e-05
7.19992e-05
7.19936e-05
7.19926e-05
7.19871e-05
8.81859e-05
6.02666e-05
4.45754e-05
6.90109e-05
6.093e-05
6.02638e-05
4.45754e-05
6.90123e-05
6.03299e-05
4.45909e-05
6.9024e-05
6.09415e-05
6.03272e-05
4.4591e-05
6.90253e-05
8.81865e-05
7.19925e-05
7.19871e-05
8.8183e-05
7.19992e-05
7.19937e-05
6.0263e-05
6.90124e-05
6.09287e-05
4.45763e-05
4.45746e-05
6.90108e-05
6.02651e-05
6.03263e-05
6.90254e-05
6.09401e-05
4.45917e-05
4.459e-05
6.90239e-05
6.03285e-05
6.96916e-05
6.92264e-05
6.1651e-05
5.66729e-05
6.92246e-05
6.16458e-05
6.96941e-05
7.03742e-05
6.987e-05
7.44374e-05
7.44434e-05
7.03658e-05
7.03659e-05
7.44438e-05
6.98687e-05
7.44371e-05
7.03743e-05
6.96941e-05
5.66755e-05
6.92246e-05
6.16464e-05
6.92263e-05
6.16501e-05
6.96916e-05
6.9692e-05
6.92241e-05
5.6675e-05
6.16387e-05
6.96894e-05
6.92259e-05
6.16433e-05
7.03635e-05
7.44238e-05
6.98642e-05
7.03725e-05
7.44179e-05
6.96894e-05
5.66722e-05
6.92259e-05
6.16438e-05
6.9692e-05
6.92242e-05
6.16392e-05
7.03724e-05
7.44175e-05
6.98654e-05
7.03636e-05
7.44233e-05
6.96941e-05
6.92247e-05
6.16451e-05
5.66755e-05
6.96916e-05
6.92264e-05
6.16501e-05
7.03658e-05
6.98687e-05
7.44438e-05
7.44372e-05
7.03743e-05
7.03742e-05
7.4437e-05
6.98699e-05
7.03658e-05
7.44435e-05
6.96916e-05
5.66728e-05
6.92264e-05
6.16508e-05
6.92248e-05
6.16457e-05
6.9694e-05
8.81809e-05
7.19941e-05
7.1999e-05
7.19875e-05
7.19924e-05
8.81838e-05
6.03281e-05
4.45868e-05
6.09388e-05
6.90236e-05
6.9025e-05
4.45867e-05
6.03254e-05
6.02657e-05
4.45695e-05
6.09233e-05
6.90104e-05
4.45696e-05
6.90118e-05
6.0263e-05
6.03246e-05
6.90251e-05
6.09374e-05
4.45894e-05
6.90236e-05
4.4587e-05
6.03272e-05
6.02621e-05
6.90119e-05
6.09223e-05
4.45718e-05
4.45696e-05
6.90103e-05
6.02646e-05
8.81841e-05
7.19875e-05
7.19923e-05
7.19941e-05
7.1999e-05
8.81806e-05
6.91614e-05
6.91557e-05
6.91601e-05
6.91654e-05
8.81842e-05
7.19876e-05
7.19925e-05
8.81806e-05
7.19941e-05
7.1999e-05
6.03267e-05
4.45898e-05
6.09376e-05
6.90252e-05
4.45874e-05
6.90236e-05
6.03275e-05
6.0264e-05
4.4572e-05
6.09223e-05
6.90119e-05
6.90103e-05
4.45698e-05
6.02648e-05
6.03283e-05
6.90235e-05
4.45859e-05
6.09388e-05
4.4588e-05
6.03255e-05
6.9025e-05
6.02656e-05
6.90102e-05
4.45683e-05
6.09232e-05
6.02629e-05
6.90118e-05
4.45703e-05
8.81803e-05
7.19941e-05
7.19989e-05
7.19875e-05
7.19924e-05
8.81839e-05
6.91557e-05
6.91614e-05
6.9691e-05
6.16487e-05
6.92263e-05
5.66714e-05
6.16436e-05
6.92246e-05
6.96934e-05
7.03734e-05
6.98678e-05
7.44343e-05
7.44405e-05
7.0365e-05
7.03651e-05
7.44407e-05
6.98666e-05
7.4434e-05
7.03735e-05
6.96934e-05
5.66739e-05
6.16443e-05
6.92246e-05
6.1648e-05
6.92263e-05
6.9691e-05
6.96899e-05
6.92259e-05
6.16447e-05
5.66706e-05
6.92242e-05
6.16396e-05
6.96923e-05
7.03717e-05
6.98657e-05
7.44156e-05
7.44216e-05
7.03634e-05
7.03634e-05
7.44219e-05
6.98645e-05
7.44153e-05
7.03718e-05
6.96923e-05
5.66732e-05
6.92242e-05
6.16403e-05
6.92259e-05
6.1644e-05
6.96899e-05
6.96935e-05
6.16429e-05
6.92246e-05
5.6674e-05
6.9691e-05
6.1648e-05
6.92263e-05
7.0365e-05
6.98666e-05
7.44407e-05
7.4434e-05
7.03735e-05
7.03734e-05
7.44337e-05
6.98678e-05
7.0365e-05
7.44404e-05
6.9691e-05
5.66714e-05
6.16487e-05
6.92263e-05
6.16435e-05
6.92246e-05
6.96934e-05
6.96924e-05
6.92242e-05
6.1639e-05
5.66732e-05
6.96899e-05
6.92259e-05
6.1644e-05
7.03633e-05
6.98645e-05
7.44219e-05
7.44153e-05
7.03718e-05
7.03717e-05
7.44151e-05
6.98657e-05
7.03634e-05
7.44216e-05
6.96899e-05
5.66706e-05
6.92259e-05
6.16446e-05
6.92242e-05
6.16396e-05
6.96923e-05
6.96892e-05
6.92264e-05
5.66698e-05
6.16405e-05
6.16355e-05
6.92247e-05
6.96918e-05
7.03723e-05
7.44155e-05
6.98657e-05
7.44215e-05
7.03639e-05
6.96918e-05
5.66723e-05
6.16364e-05
6.92247e-05
6.16397e-05
6.92264e-05
6.96892e-05
7.03639e-05
7.44218e-05
6.98645e-05
7.44152e-05
7.03723e-05
6.96902e-05
6.16456e-05
6.92272e-05
5.66726e-05
6.16409e-05
6.92256e-05
6.96928e-05
7.03727e-05
6.987e-05
7.44325e-05
7.44379e-05
7.03637e-05
7.03638e-05
7.44382e-05
6.98687e-05
7.44322e-05
7.03728e-05
6.96928e-05
5.66754e-05
6.16416e-05
6.92256e-05
6.16448e-05
6.92273e-05
6.96902e-05
6.96918e-05
6.92246e-05
5.66723e-05
6.16348e-05
6.96892e-05
6.16396e-05
6.92264e-05
7.03638e-05
7.44217e-05
6.98644e-05
7.44152e-05
7.03723e-05
6.96892e-05
5.66697e-05
6.16403e-05
6.92263e-05
6.16354e-05
6.92247e-05
6.96917e-05
7.03722e-05
7.4415e-05
6.98655e-05
7.03639e-05
7.44215e-05
6.96928e-05
6.16402e-05
6.92256e-05
5.66755e-05
6.96902e-05
6.16449e-05
6.92272e-05
7.03637e-05
6.98687e-05
7.44382e-05
7.44322e-05
7.03728e-05
7.03727e-05
7.44319e-05
6.987e-05
7.03637e-05
7.44379e-05
6.96902e-05
5.66727e-05
6.16455e-05
6.92272e-05
6.16408e-05
6.92256e-05
6.96928e-05
6.91637e-05
6.91583e-05
6.91659e-05
6.91605e-05
8.81866e-05
7.19927e-05
7.19872e-05
8.81831e-05
7.19992e-05
7.19937e-05
6.02648e-05
4.45763e-05
6.09287e-05
6.90124e-05
6.02655e-05
4.45742e-05
6.90108e-05
6.03281e-05
4.45919e-05
6.09402e-05
6.90254e-05
6.03289e-05
4.45896e-05
6.90238e-05
6.02665e-05
6.90107e-05
4.45731e-05
6.09299e-05
6.02637e-05
4.4575e-05
6.90123e-05
6.03298e-05
6.90238e-05
4.45884e-05
6.09415e-05
6.03271e-05
4.45905e-05
6.90253e-05
8.81827e-05
7.19991e-05
7.19936e-05
8.81862e-05
7.19926e-05
7.19871e-05
6.91583e-05
6.91637e-05
6.91605e-05
6.91659e-05
6.91638e-05
6.91584e-05
6.91651e-05
6.91597e-05
8.81695e-05
7.19967e-05
7.19927e-05
7.19903e-05
7.19863e-05
8.8173e-05
6.02825e-05
4.45784e-05
6.09288e-05
6.90139e-05
6.9015e-05
4.45783e-05
6.0282e-05
6.03286e-05
4.45883e-05
6.09375e-05
6.90216e-05
6.90232e-05
4.45916e-05
6.0321e-05
6.02776e-05
6.90151e-05
6.09274e-05
4.45801e-05
6.90136e-05
6.02793e-05
4.45775e-05
6.03265e-05
6.90237e-05
6.09362e-05
4.45939e-05
6.90219e-05
6.03292e-05
4.45918e-05
8.81724e-05
7.19907e-05
7.19865e-05
7.1997e-05
7.19932e-05
8.81687e-05
6.96916e-05
5.66729e-05
6.92264e-05
6.16508e-05
6.92247e-05
6.16457e-05
6.9694e-05
7.03742e-05
7.4437e-05
6.987e-05
7.03659e-05
7.44435e-05
6.9694e-05
5.66756e-05
6.92247e-05
6.1645e-05
6.92264e-05
6.96916e-05
6.16501e-05
7.03659e-05
7.44436e-05
6.98687e-05
7.44371e-05
7.03743e-05
8.81812e-05
7.19941e-05
7.19989e-05
7.19875e-05
7.19924e-05
8.81839e-05
6.03286e-05
4.45862e-05
6.90235e-05
6.0939e-05
6.90251e-05
6.03258e-05
4.45883e-05
6.02659e-05
4.45686e-05
6.90102e-05
6.09234e-05
4.45705e-05
6.02631e-05
6.90118e-05
8.81844e-05
7.19876e-05
7.19924e-05
7.19941e-05
8.81808e-05
7.1999e-05
6.03251e-05
6.90251e-05
6.09376e-05
4.45888e-05
6.90236e-05
4.45873e-05
6.03273e-05
6.02624e-05
6.90119e-05
6.09225e-05
4.45718e-05
4.45701e-05
6.90104e-05
6.02645e-05
6.91614e-05
6.91557e-05
6.96896e-05
6.92272e-05
6.16422e-05
5.66726e-05
6.92255e-05
6.16374e-05
6.96921e-05
7.03718e-05
6.98648e-05
7.44157e-05
7.44211e-05
7.03629e-05
7.03629e-05
7.44214e-05
6.98636e-05
7.44154e-05
7.03718e-05
6.96921e-05
5.66754e-05
6.92256e-05
6.16381e-05
6.92272e-05
6.16414e-05
6.96896e-05
6.9691e-05
5.66715e-05
6.16485e-05
6.92264e-05
6.16436e-05
6.92247e-05
6.96934e-05
7.03735e-05
7.44338e-05
6.98678e-05
7.44404e-05
7.0365e-05
6.96935e-05
5.6674e-05
6.16429e-05
6.92246e-05
6.1648e-05
6.9691e-05
6.92264e-05
7.03651e-05
7.44406e-05
6.98666e-05
7.4434e-05
7.03735e-05
6.96899e-05
5.66707e-05
6.92259e-05
6.16443e-05
6.92242e-05
6.16395e-05
6.96923e-05
7.03718e-05
7.44151e-05
6.98658e-05
7.03634e-05
7.44216e-05
6.96923e-05
5.66732e-05
6.92242e-05
6.16389e-05
6.96899e-05
6.92259e-05
6.16439e-05
7.03634e-05
7.44217e-05
6.98645e-05
7.44153e-05
7.03718e-05
8.81842e-05
7.19937e-05
7.19993e-05
7.19872e-05
7.19928e-05
8.8187e-05
6.03299e-05
4.45882e-05
6.09327e-05
6.90218e-05
6.90232e-05
4.45883e-05
6.03271e-05
6.02682e-05
4.45726e-05
6.09274e-05
6.90112e-05
4.45726e-05
6.90125e-05
6.02656e-05
6.03263e-05
6.90234e-05
6.09316e-05
4.45902e-05
6.90217e-05
4.45878e-05
6.03289e-05
6.02648e-05
6.90126e-05
6.09261e-05
4.45749e-05
4.45726e-05
6.9011e-05
6.02673e-05
8.81874e-05
7.19872e-05
7.19928e-05
7.19938e-05
7.19994e-05
8.81839e-05
6.91635e-05
6.91581e-05
6.96892e-05
5.66698e-05
6.16406e-05
6.92263e-05
6.16356e-05
6.92246e-05
6.96917e-05
7.03723e-05
7.44149e-05
6.98656e-05
7.44214e-05
7.03639e-05
6.96917e-05
5.66722e-05
6.16348e-05
6.92246e-05
6.16397e-05
6.96891e-05
6.92263e-05
7.03639e-05
7.44217e-05
6.98644e-05
7.44151e-05
7.03723e-05
6.96902e-05
5.66727e-05
6.16456e-05
6.92272e-05
6.16409e-05
6.92255e-05
6.96928e-05
7.03727e-05
7.44319e-05
6.987e-05
7.03637e-05
7.44379e-05
6.96928e-05
5.66754e-05
6.16402e-05
6.92255e-05
6.96902e-05
6.16448e-05
6.92272e-05
7.03638e-05
7.4438e-05
6.98687e-05
7.44321e-05
7.03727e-05
6.91637e-05
6.91583e-05
6.91659e-05
6.91605e-05
1.24762e-05
1.24764e-05
1.31171e-05
1.24764e-05
1.24766e-05
1.23739e-05
1.2374e-05
4.36076e-05
3.07396e-05
3.07458e-05
2.15597e-05
3.07207e-05
3.07268e-05
4.36116e-05
1.24762e-05
1.24764e-05
1.31171e-05
1.24762e-05
1.24764e-05
1.23739e-05
1.2374e-05
4.36076e-05
3.07398e-05
3.07459e-05
2.15632e-05
4.36117e-05
3.0721e-05
3.07269e-05
4.36076e-05
3.07442e-05
3.07387e-05
2.15598e-05
3.07195e-05
3.07252e-05
4.36118e-05
4.36128e-05
2.15884e-05
3.07273e-05
3.07212e-05
3.07428e-05
3.07369e-05
4.36074e-05
4.36128e-05
2.15897e-05
3.07227e-05
3.07286e-05
4.36075e-05
3.0738e-05
3.07441e-05
4.36088e-05
3.07402e-05
3.07455e-05
2.15619e-05
3.07203e-05
3.07283e-05
4.36126e-05
4.36075e-05
3.07414e-05
3.07354e-05
2.15608e-05
3.07198e-05
4.36117e-05
3.07257e-05
4.36082e-05
3.07447e-05
3.07402e-05
2.15624e-05
3.07215e-05
3.07258e-05
4.36122e-05
1.24764e-05
1.24764e-05
1.31172e-05
1.24766e-05
1.24766e-05
1.23742e-05
1.23742e-05
1.24765e-05
1.24769e-05
1.31178e-05
1.24773e-05
1.24766e-05
1.23742e-05
1.23742e-05
1.24766e-05
1.24767e-05
1.31176e-05
1.24767e-05
1.24769e-05
1.23742e-05
1.23742e-05
1.31171e-05
1.24762e-05
1.24764e-05
1.24764e-05
1.24766e-05
1.23742e-05
1.23741e-05
1.31171e-05
1.24764e-05
1.24765e-05
1.24765e-05
1.24765e-05
1.23744e-05
1.23744e-05
1.31178e-05
1.24765e-05
1.24772e-05
1.24772e-05
1.24766e-05
1.23744e-05
1.23744e-05
1.31176e-05
1.24766e-05
1.24768e-05
1.24767e-05
1.24768e-05
1.23744e-05
1.23744e-05
2.39726e-05
3.94406e-05
2.1851e-05
3.5771e-05
3.94472e-05
2.18687e-05
2.39412e-05
2.76768e-05
3.38131e-05
4.94056e-05
4.49025e-05
3.37975e-05
4.48954e-05
2.77017e-05
2.77013e-05
4.48954e-05
4.94069e-05
3.37991e-05
3.38114e-05
4.49019e-05
2.76758e-05
2.39427e-05
3.57655e-05
3.94477e-05
2.18702e-05
3.94408e-05
2.18496e-05
2.39712e-05
2.39741e-05
2.1853e-05
3.57716e-05
3.94382e-05
2.18707e-05
3.94444e-05
2.39428e-05
2.76787e-05
3.3817e-05
4.48977e-05
4.94098e-05
4.4891e-05
2.77032e-05
3.38015e-05
2.39443e-05
3.57661e-05
2.18722e-05
3.94449e-05
2.18516e-05
3.9438e-05
2.39726e-05
2.77028e-05
4.48911e-05
4.94113e-05
3.38033e-05
4.4897e-05
2.76779e-05
3.38154e-05
4.36111e-05
2.15884e-05
3.07222e-05
3.07283e-05
3.07378e-05
3.0744e-05
4.36071e-05
1.24766e-05
1.24767e-05
1.31172e-05
1.24766e-05
1.24767e-05
1.23742e-05
1.23742e-05
1.24768e-05
1.24773e-05
1.31179e-05
1.24767e-05
1.24773e-05
1.23742e-05
1.23743e-05
1.24768e-05
1.24769e-05
1.31177e-05
1.24768e-05
1.24769e-05
1.23742e-05
1.23742e-05
2.39727e-05
3.57709e-05
3.94412e-05
2.18505e-05
3.94473e-05
2.18688e-05
2.39407e-05
2.76768e-05
3.38132e-05
4.49024e-05
4.94056e-05
2.77017e-05
3.37977e-05
4.48953e-05
2.39427e-05
3.57654e-05
3.94475e-05
2.18702e-05
2.39713e-05
3.94407e-05
2.18496e-05
2.77013e-05
4.48958e-05
4.9407e-05
3.38088e-05
3.38118e-05
4.49019e-05
2.76758e-05
2.39739e-05
3.57715e-05
2.18529e-05
3.94382e-05
2.18706e-05
3.94444e-05
2.39425e-05
2.76783e-05
3.38168e-05
4.48977e-05
4.94093e-05
2.77031e-05
3.38013e-05
4.48908e-05
2.3944e-05
3.57658e-05
2.18721e-05
3.94447e-05
2.39724e-05
2.18515e-05
3.94378e-05
2.77027e-05
4.4891e-05
4.94107e-05
3.3803e-05
3.38152e-05
4.4897e-05
2.76774e-05
4.36112e-05
2.15932e-05
3.07219e-05
3.07279e-05
3.07381e-05
3.07441e-05
4.36065e-05
2.39732e-05
2.18514e-05
3.5773e-05
3.94408e-05
3.94468e-05
2.18692e-05
2.3942e-05
2.76787e-05
3.38181e-05
4.48992e-05
4.94096e-05
4.48927e-05
2.77032e-05
3.3804e-05
2.39432e-05
3.57674e-05
3.94467e-05
2.18704e-05
3.94403e-05
2.18499e-05
2.39713e-05
2.77035e-05
4.48937e-05
4.94119e-05
3.38088e-05
4.48994e-05
2.76789e-05
3.38199e-05
2.39759e-05
3.94454e-05
2.18523e-05
3.57739e-05
3.94518e-05
2.18702e-05
2.39445e-05
2.7683e-05
3.38233e-05
4.94142e-05
4.4909e-05
4.4902e-05
3.38078e-05
2.77076e-05
2.77072e-05
4.49018e-05
4.94156e-05
3.38095e-05
4.4908e-05
2.7682e-05
3.38218e-05
2.3946e-05
3.57685e-05
3.94524e-05
2.18715e-05
3.94456e-05
2.1851e-05
2.39745e-05
2.39432e-05
2.18683e-05
3.57664e-05
3.94464e-05
2.39718e-05
3.94399e-05
2.185e-05
2.77055e-05
3.38067e-05
4.48926e-05
4.94119e-05
4.48989e-05
2.76781e-05
3.38176e-05
2.397e-05
3.57723e-05
3.94398e-05
2.18512e-05
3.94463e-05
2.18691e-05
2.39415e-05
2.76796e-05
4.48993e-05
3.38191e-05
4.94105e-05
2.77048e-05
4.48928e-05
3.3804e-05
2.3946e-05
3.94509e-05
2.18693e-05
3.57674e-05
2.39744e-05
3.94443e-05
2.1851e-05
2.77095e-05
3.38098e-05
4.94147e-05
4.49016e-05
4.49077e-05
3.3822e-05
2.76821e-05
2.76832e-05
4.49071e-05
3.38202e-05
4.94135e-05
2.77079e-05
4.4901e-05
3.3808e-05
2.3973e-05
3.57733e-05
3.94449e-05
2.18522e-05
3.94512e-05
2.18702e-05
2.39445e-05
4.36111e-05
2.15888e-05
3.07268e-05
3.0721e-05
3.07368e-05
3.07425e-05
4.36069e-05
4.3608e-05
2.15534e-05
3.0741e-05
3.07351e-05
3.07254e-05
4.36116e-05
3.07194e-05
2.3974e-05
2.18518e-05
3.94409e-05
3.57719e-05
2.18696e-05
3.94474e-05
2.39425e-05
2.76791e-05
3.38183e-05
4.94098e-05
4.49005e-05
3.38027e-05
4.48934e-05
2.77037e-05
2.77033e-05
4.48934e-05
4.94112e-05
3.38044e-05
3.38167e-05
4.48997e-05
2.76781e-05
2.39442e-05
3.57666e-05
2.18711e-05
3.94481e-05
2.18506e-05
3.94412e-05
2.39726e-05
2.39427e-05
3.94464e-05
2.18679e-05
3.57649e-05
2.39711e-05
3.944e-05
2.18497e-05
2.77033e-05
3.37992e-05
4.94071e-05
4.48957e-05
2.76758e-05
3.38115e-05