/*--------------------------------*- C++ -*----------------------------------*\
| =========                 |                                                 |
| \\      /  F ield         | OpenFOAM: The Open Source CFD Toolbox           |
|  \\    /   O peration     | Version:  v1912                                 |
|   \\  /    A nd           | Website:  www.openfoam.com                      |
|    \\/     M anipulation  |                                                 |
\*---------------------------------------------------------------------------*/
FoamFile
{
    version     2.0;
    format      ascii;
    class       volScalarField;
    location    "120";
    object      nut;
}
// * * * * * * * * * * * * * * * * * * * * * * * * * * * * * * * * * * * * * //

dimensions      [0 2 -1 0 0 0 0];


internalField   nonuniform List<scalar> 
57566
(
2.35474e-05
7.96306e-05
9.1949e-05
0.000107343
7.3281e-05
8.48834e-05
6.44192e-05
6.44182e-05
2.35487e-05
2.35478e-05
8.48709e-05
6.44023e-05
6.44051e-05
7.5958e-05
4.94934e-05
7.59589e-05
4.94956e-05
7.9676e-05
9.19536e-05
7.32594e-05
0.000107339
7.96759e-05
9.1938e-05
7.32709e-05
0.000107329
2.35489e-05
8.48691e-05
6.44071e-05
6.43998e-05
2.35489e-05
7.59771e-05
4.94881e-05
7.96561e-05
9.19136e-05
0.000107328
7.32681e-05
7.59616e-05
4.94921e-05
7.96201e-05
9.19659e-05
7.32682e-05
0.000107345
7.59572e-05
4.94872e-05
7.96495e-05
9.19253e-05
0.000107331
7.32607e-05
7.96563e-05
9.19364e-05
0.00010734
7.32833e-05
7.59743e-05
4.94913e-05
7.9665e-05
9.19726e-05
7.32547e-05
0.000107348
7.5954e-05
4.94936e-05
7.96504e-05
9.19483e-05
0.000107343
7.32723e-05
7.59542e-05
4.94904e-05
8.4884e-05
6.4407e-05
6.44161e-05
2.35491e-05
2.35462e-05
8.48622e-05
6.43967e-05
6.4406e-05
2.3548e-05
7.9634e-05
9.19475e-05
0.000107344
7.32838e-05
7.59746e-05
4.94908e-05
7.5978e-05
4.94919e-05
7.96308e-05
9.19608e-05
0.000107346
7.32689e-05
7.96342e-05
9.19594e-05
0.000107347
7.32722e-05
7.59554e-05
4.94899e-05
7.59584e-05
4.9491e-05
2.3549e-05
2.35485e-05
8.48616e-05
6.44094e-05
6.44082e-05
2.35479e-05
2.35474e-05
2.35466e-05
7.27224e-05
2.14867e-05
2.14839e-05
2.14859e-05
2.14831e-05
7.27299e-05
7.9888e-05
4.72225e-05
6.44113e-05
8.15428e-05
8.15202e-05
4.72224e-05
7.99057e-05
7.99272e-05
4.72143e-05
6.44102e-05
8.15471e-05
8.15252e-05
4.72143e-05
7.99441e-05
2.35495e-05
2.35486e-05
7.27266e-05
2.14864e-05
2.14826e-05
7.2719e-05
2.1487e-05
2.14839e-05
7.99046e-05
4.72228e-05
8.15309e-05
6.44093e-05
7.9893e-05
4.72225e-05
8.15466e-05
7.99396e-05
4.72122e-05
8.15287e-05
6.44149e-05
7.99202e-05
4.7213e-05
8.15471e-05
3.61561e-05
4.03633e-05
7.53572e-05
7.59728e-05
3.61559e-05
4.03634e-05
7.53657e-05
2.01283e-05
7.01914e-05
4.94934e-05
2.01275e-05
7.02049e-05
3.6158e-05
4.03634e-05
7.53675e-05
7.59736e-05
3.61576e-05
4.03635e-05
7.5376e-05
2.01295e-05
7.02173e-05
4.94956e-05
2.01285e-05
7.02282e-05
2.35496e-05
7.27276e-05
2.14835e-05
2.14858e-05
7.272e-05
2.14844e-05
2.14866e-05
7.99368e-05
4.72137e-05
8.15281e-05
6.44152e-05
8.15457e-05
7.99195e-05
4.72138e-05
7.99025e-05
4.72213e-05
8.15259e-05
6.44081e-05
7.98855e-05
4.72214e-05
8.15434e-05
2.35497e-05
3.61556e-05
7.5967e-05
4.03635e-05
7.53642e-05
4.03635e-05
7.53562e-05
3.61559e-05
2.01272e-05
7.02036e-05
4.94882e-05
7.01894e-05
2.01283e-05
3.61578e-05
7.53679e-05
4.03629e-05
7.59732e-05
3.61575e-05
7.53762e-05
4.0363e-05
2.01299e-05
7.02168e-05
4.94921e-05
2.01288e-05
7.02276e-05
3.61552e-05
4.03626e-05
7.53482e-05
7.59687e-05
3.61548e-05
4.03627e-05
7.53573e-05
2.0128e-05
7.01857e-05
4.94872e-05
2.01269e-05
7.01996e-05
3.61565e-05
7.59608e-05
4.03636e-05
7.53699e-05
4.03635e-05
7.53621e-05
3.61568e-05
2.01281e-05
7.02093e-05
4.94914e-05
7.0198e-05
2.01291e-05
3.61584e-05
7.53658e-05
4.03628e-05
7.59692e-05
3.6158e-05
7.53748e-05
4.03629e-05
2.01302e-05
7.02154e-05
4.94937e-05
2.01291e-05
7.02267e-05
3.61561e-05
4.03627e-05
7.53548e-05
7.59674e-05
3.61558e-05
4.03628e-05
7.53636e-05
2.01288e-05
7.01939e-05
4.94904e-05
2.01278e-05
7.02055e-05
7.27234e-05
2.14833e-05
2.14866e-05
2.14825e-05
2.14858e-05
7.2731e-05
7.99231e-05
4.72124e-05
6.43988e-05
8.15468e-05
4.72123e-05
8.15267e-05
7.99411e-05
7.98911e-05
4.72228e-05
6.44083e-05
8.15412e-05
8.15176e-05
4.72227e-05
7.99091e-05
2.35484e-05
2.3547e-05
7.27291e-05
2.14822e-05
2.14855e-05
7.27219e-05
2.1483e-05
2.14863e-05
7.99397e-05
4.72114e-05
8.15279e-05
6.44031e-05
8.15449e-05
7.99281e-05
4.72116e-05
7.99075e-05
4.72218e-05
8.15212e-05
6.44117e-05
7.98961e-05
4.72219e-05
8.1539e-05
2.35488e-05
3.61567e-05
7.5965e-05
7.5368e-05
4.03635e-05
7.53601e-05
4.03635e-05
3.61569e-05
2.01283e-05
7.02078e-05
4.94908e-05
7.01967e-05
2.01293e-05
3.61586e-05
7.59679e-05
7.53771e-05
4.03636e-05
7.53691e-05
4.03636e-05
3.61588e-05
2.01294e-05
7.02275e-05
4.94919e-05
7.02172e-05
2.01304e-05
3.61562e-05
7.53528e-05
4.03626e-05
7.59667e-05
3.61559e-05
7.53618e-05
4.03626e-05
2.01289e-05
7.01927e-05
4.94899e-05
2.01279e-05
7.02043e-05
3.61581e-05
7.53618e-05
4.03627e-05
7.59703e-05
3.61578e-05
7.53708e-05
4.03628e-05
2.013e-05
7.02129e-05
4.9491e-05
2.0129e-05
7.02238e-05
2.35483e-05
2.35478e-05
7.27281e-05
2.14856e-05
2.14828e-05
7.2721e-05
2.14865e-05
2.14836e-05
7.99046e-05
4.72215e-05
8.15235e-05
6.4415e-05
7.9893e-05
8.15423e-05
4.72216e-05
7.99432e-05
4.72133e-05
8.1528e-05
6.44143e-05
7.99316e-05
8.15464e-05
4.72135e-05
2.35487e-05
2.35481e-05
0.000127144
0.000151952
0.000151967
0.000173803
0.000127153
0.00015196
0.000151969
0.000173805
0.000127163
0.000151979
0.000151995
0.000173821
0.000127161
0.000151975
0.000151995
0.000173823
0.000127157
0.000151989
0.000152005
0.000173834
0.000127167
0.000151996
0.000152007
0.000173835
7.92603e-05
7.96175e-05
7.98159e-05
8.01614e-05
7.97973e-05
8.01443e-05
7.9272e-05
7.87646e-05
7.80167e-05
7.32651e-05
8.01493e-05
8.01599e-05
7.8006e-05
7.87747e-05
8.51437e-05
8.48506e-05
8.30997e-05
8.31058e-05
8.31057e-05
8.31116e-05
8.5161e-05
8.51557e-05
8.49053e-05
8.31269e-05
8.31339e-05
8.51414e-05
8.31216e-05
8.31286e-05
7.9287e-05
8.01485e-05
7.98536e-05
7.96829e-05
7.92816e-05
8.0168e-05
7.98834e-05
7.87909e-05
7.79818e-05
8.01702e-05
7.32741e-05
8.0168e-05
7.87829e-05
7.79862e-05
7.92913e-05
8.01562e-05
7.98555e-05
7.96888e-05
7.92858e-05
8.01776e-05
7.9886e-05
7.87961e-05
7.79962e-05
8.02047e-05
7.32842e-05
7.8788e-05
7.80015e-05
8.01843e-05
8.51524e-05
8.49033e-05
8.31286e-05
8.31266e-05
8.3123e-05
8.5138e-05
8.31213e-05
7.9257e-05
7.96595e-05
7.98482e-05
8.01605e-05
7.98188e-05
8.01445e-05
7.92678e-05
7.87555e-05
7.80036e-05
7.32557e-05
8.01401e-05
7.80032e-05
7.87647e-05
8.01493e-05
7.92915e-05
8.01562e-05
7.98514e-05
7.96373e-05
7.92859e-05
8.01769e-05
7.98778e-05
7.87973e-05
7.79948e-05
8.01722e-05
7.32817e-05
8.01728e-05
7.87889e-05
7.80002e-05
7.92933e-05
7.98555e-05
8.01583e-05
7.96462e-05
7.92855e-05
7.98684e-05
8.01671e-05
7.87841e-05
7.79997e-05
8.01434e-05
7.32712e-05
7.87814e-05
7.79956e-05
8.01532e-05
7.9262e-05
7.96564e-05
7.98513e-05
8.01632e-05
7.98213e-05
8.01471e-05
7.92724e-05
7.87649e-05
7.80156e-05
7.32686e-05
8.0152e-05
8.01497e-05
7.80121e-05
7.87745e-05
7.92862e-05
8.01472e-05
7.98501e-05
7.96665e-05
7.928e-05
8.01683e-05
7.98789e-05
7.87894e-05
7.79899e-05
8.01709e-05
7.32704e-05
7.87809e-05
8.01656e-05
7.79945e-05
7.92981e-05
7.98594e-05
8.01608e-05
7.96471e-05
7.92902e-05
7.98721e-05
8.01699e-05
7.87941e-05
7.80117e-05
8.01558e-05
7.32819e-05
7.87914e-05
7.80076e-05
8.01656e-05
8.51434e-05
8.48499e-05
8.31003e-05
8.31006e-05
8.31064e-05
8.31061e-05
8.51626e-05
8.51627e-05
8.48953e-05
8.31088e-05
8.31092e-05
8.31198e-05
8.5159e-05
8.31203e-05
7.92654e-05
7.96211e-05
7.98487e-05
8.0171e-05
7.98195e-05
8.01545e-05
7.92771e-05
7.87662e-05
7.80179e-05
7.32682e-05
8.01518e-05
8.01576e-05
7.8017e-05
7.8776e-05
7.9297e-05
7.98267e-05
8.01593e-05
7.96406e-05
7.92897e-05
7.98407e-05
8.01686e-05
7.87949e-05
7.80142e-05
8.01536e-05
7.32793e-05
7.87918e-05
8.01638e-05
7.80136e-05
7.93023e-05
7.98555e-05
8.01685e-05
7.96446e-05
7.92948e-05
7.98694e-05
8.01777e-05
7.87952e-05
7.8014e-05
8.01545e-05
7.3283e-05
7.87921e-05
7.80098e-05
8.01648e-05
8.51618e-05
8.4896e-05
8.31086e-05
8.31146e-05
8.51573e-05
8.31201e-05
8.31259e-05
2.35489e-05
2.35474e-05
8.51654e-05
6.44245e-05
6.4422e-05
7.59636e-05
4.94934e-05
7.59652e-05
7.98057e-05
9.23372e-05
7.33339e-05
0.000107676
7.98082e-05
0.000107671
7.59701e-05
4.9491e-05
7.98119e-05
9.23514e-05
7.33347e-05
0.000107677
7.59652e-05
4.94866e-05
7.98084e-05
9.23285e-05
0.00010767
7.33221e-05
2.35459e-05
8.5161e-05
6.44114e-05
6.44214e-05
2.35478e-05
7.97991e-05
9.236e-05
0.000107686
7.33337e-05
7.98068e-05
0.000107686
7.5959e-05
4.94893e-05
7.59654e-05
2.35498e-05
2.35483e-05
7.27258e-05
2.14851e-05
2.14822e-05
7.27175e-05
2.14861e-05
2.14832e-05
7.99527e-05
4.72226e-05
8.163e-05
6.44263e-05
7.99449e-05
4.7223e-05
8.16362e-05
7.99779e-05
4.72114e-05
8.16187e-05
6.4424e-05
7.99693e-05
4.72119e-05
8.16278e-05
3.61552e-05
4.03612e-05
7.53632e-05
7.59703e-05
3.61545e-05
4.03617e-05
7.53706e-05
2.01283e-05
7.01978e-05
4.9494e-05
2.0127e-05
7.02103e-05
3.6157e-05
4.03614e-05
7.53783e-05
7.59719e-05
3.61563e-05
4.03619e-05
7.53857e-05
3.61569e-05
7.53792e-05
4.0361e-05
7.59762e-05
3.61562e-05
7.53869e-05
4.03615e-05
2.01295e-05
7.02199e-05
4.94914e-05
2.01283e-05
7.02309e-05
3.61543e-05
4.03608e-05
7.53597e-05
7.59713e-05
3.61536e-05
4.03613e-05
7.53672e-05
2.01278e-05
7.01927e-05
4.9487e-05
2.01265e-05
7.02057e-05
2.35469e-05
7.27363e-05
2.1482e-05
2.14853e-05
7.2729e-05
2.1483e-05
2.14863e-05
7.997e-05
4.72112e-05
8.16085e-05
6.44139e-05
8.16175e-05
7.99607e-05
4.72117e-05
7.99367e-05
4.72219e-05
8.16083e-05
6.44232e-05
7.99275e-05
4.72222e-05
8.1617e-05
2.35487e-05
3.61549e-05
7.53609e-05
4.03603e-05
7.59658e-05
3.61543e-05
7.53687e-05
4.03608e-05
2.01288e-05
7.01993e-05
4.94897e-05
2.01276e-05
7.02102e-05
3.61568e-05
7.53667e-05
4.03608e-05
7.59714e-05
3.61561e-05
7.53736e-05
4.03613e-05
0.000127497
0.000152403
0.000152408
0.00017442
0.000152402
0.000174422
0.000127488
0.000152401
0.000152419
0.000174413
0.000152418
0.000174418
8.52815e-05
8.51931e-05
8.33238e-05
8.33216e-05
8.52943e-05
8.33185e-05
8.33161e-05
7.95348e-05
8.03125e-05
8.01054e-05
7.97793e-05
7.95382e-05
8.02859e-05
8.0101e-05
7.89701e-05
7.80883e-05
8.02979e-05
7.33385e-05
8.03111e-05
7.89706e-05
7.80757e-05
7.95363e-05
8.03206e-05
8.01069e-05
7.97817e-05
7.95416e-05
8.02946e-05
8.01025e-05
7.95406e-05
8.03246e-05
8.01111e-05
7.97852e-05
7.95439e-05
8.02995e-05
8.01066e-05
7.89731e-05
7.80993e-05
8.02943e-05
7.33411e-05
8.03003e-05
7.89736e-05
7.80871e-05
7.95344e-05
8.01087e-05
8.03127e-05
7.97815e-05
7.95378e-05
8.01044e-05
8.02865e-05
7.89637e-05
7.80832e-05
8.0286e-05
7.33313e-05
7.89641e-05
7.80706e-05
8.02972e-05
8.52743e-05
8.51887e-05
8.33184e-05
8.33184e-05
8.33127e-05
8.52888e-05
8.33129e-05
7.95341e-05
8.01069e-05
8.03086e-05
7.97732e-05
7.95374e-05
8.01025e-05
8.02849e-05
7.89706e-05
7.80882e-05
8.02928e-05
7.33386e-05
7.897e-05
8.03009e-05
7.80759e-05
7.95345e-05
8.01107e-05
8.03139e-05
7.97805e-05
7.95398e-05
8.01063e-05
8.02887e-05
0.000127494
9.23653e-05
9.23618e-05
8.51703e-05
0.000127495
9.23644e-05
9.23589e-05
8.51833e-05
9.234e-05
9.23272e-05
9.23358e-05
9.23296e-05
8.51826e-05
8.52102e-05
9.23462e-05
9.23664e-05
9.23492e-05
9.23543e-05
9.2361e-05
9.23604e-05
8.5216e-05
8.51858e-05
9.2341e-05
9.23299e-05
8.5186e-05
9.23518e-05
9.23312e-05
9.23487e-05
8.51832e-05
9.23636e-05
7.59727e-05
4.94934e-05
7.59633e-05
4.94922e-05
2.35482e-05
2.35491e-05
0.000127498
0.000127486
0.0001275
0.000127496
0.000127499
0.00012749
0.000127501
7.98006e-05
7.33284e-05
0.000107685
9.23661e-05
7.33368e-05
0.00010769
7.98025e-05
7.97988e-05
0.000107685
7.33346e-05
9.23612e-05
0.000107689
7.98008e-05
7.33436e-05
6.44255e-05
6.44265e-05
8.51888e-05
6.44306e-05
6.44316e-05
7.59735e-05
4.94927e-05
7.59631e-05
4.94938e-05
2.35482e-05
2.35491e-05
7.59796e-05
4.94913e-05
4.94914e-05
7.59701e-05
0.000127501
0.00012749
0.000127502
7.97702e-05
7.33283e-05
0.000107684
9.2363e-05
7.98021e-05
7.3335e-05
0.000107683
2.35459e-05
2.35469e-05
7.97998e-05
0.000107687
7.33339e-05
9.23619e-05
7.98007e-05
0.000107686
7.33434e-05
6.44258e-05
6.44265e-05
8.51934e-05
6.44291e-05
6.44299e-05
7.59738e-05
4.94943e-05
4.94947e-05
7.59642e-05
7.98044e-05
7.33349e-05
0.000107676
9.23326e-05
0.000107674
7.98066e-05
7.3344e-05
7.98068e-05
7.33387e-05
0.000107668
9.23288e-05
7.33496e-05
0.00010767
7.98094e-05
7.59577e-05
4.94931e-05
7.59728e-05
4.94918e-05
7.59605e-05
4.94947e-05
4.94942e-05
7.59754e-05
7.98027e-05
9.23392e-05
7.33469e-05
0.000107674
0.000107674
7.98031e-05
7.33343e-05
7.98053e-05
9.23295e-05
7.33486e-05
0.000107669
7.33355e-05
0.000107669
7.98061e-05
6.44247e-05
6.44154e-05
8.51941e-05
6.44299e-05
6.44208e-05
2.35485e-05
2.35495e-05
2.35491e-05
2.35482e-05
8.5164e-05
6.44303e-05
6.4421e-05
6.44233e-05
6.44136e-05
2.35495e-05
2.35485e-05
7.59723e-05
4.94929e-05
4.94933e-05
7.59618e-05
7.98031e-05
0.000107685
7.33341e-05
9.23476e-05
0.000107687
7.33453e-05
7.98063e-05
7.59713e-05
4.94897e-05
4.94902e-05
7.59609e-05
7.97995e-05
9.23661e-05
7.33379e-05
0.000107687
7.33269e-05
0.000107689
7.98023e-05
7.59579e-05
4.94933e-05
4.94929e-05
7.59725e-05
7.98018e-05
9.23493e-05
0.000107681
7.33469e-05
0.000107684
7.33354e-05
7.98027e-05
7.5957e-05
4.94902e-05
4.94897e-05
7.59714e-05
7.98064e-05
0.00010769
7.33359e-05
9.23534e-05
0.000107695
7.33483e-05
7.98091e-05
7.59692e-05
4.94891e-05
7.59586e-05
4.94895e-05
7.59748e-05
4.94901e-05
4.94905e-05
7.59652e-05
7.97977e-05
9.23618e-05
0.000107687
7.33435e-05
0.000107688
7.98009e-05
7.33304e-05
7.98048e-05
9.23567e-05
0.000107693
7.33447e-05
0.000107695
7.3334e-05
7.98059e-05
7.59544e-05
4.94897e-05
7.59692e-05
4.94891e-05
7.59613e-05
4.94905e-05
4.94901e-05
7.59751e-05
2.35476e-05
2.35486e-05
2.35471e-05
2.35481e-05
8.517e-05
6.44308e-05
6.44316e-05
6.4424e-05
6.44249e-05
2.35486e-05
2.35477e-05
2.35481e-05
2.35472e-05
2.35484e-05
2.35498e-05
2.35477e-05
2.35483e-05
6.44209e-05
6.44217e-05
8.51989e-05
6.44293e-05
6.44269e-05
7.59753e-05
4.94942e-05
7.59611e-05
4.94947e-05
7.98059e-05
7.33343e-05
0.000107677
9.23377e-05
7.98023e-05
7.33436e-05
0.000107677
7.98085e-05
7.33399e-05
0.000107672
9.23292e-05
7.98054e-05
7.33468e-05
0.000107672
6.44236e-05
6.44139e-05
8.51965e-05
6.44292e-05
6.44188e-05
2.35485e-05
2.35495e-05
7.98129e-05
7.33341e-05
0.000107675
9.23518e-05
7.33445e-05
0.000107677
7.98142e-05
7.59743e-05
4.94866e-05
4.94871e-05
7.59649e-05
7.98096e-05
0.000107669
7.33228e-05
9.23297e-05
0.000107672
7.33322e-05
7.98113e-05
7.59707e-05
4.94929e-05
7.5958e-05
4.94933e-05
7.97721e-05
0.00010768
7.33383e-05
9.23476e-05
7.98014e-05
0.00010768
7.33412e-05
7.59696e-05
4.94897e-05
7.59571e-05
4.94902e-05
6.44115e-05
6.44213e-05
8.51941e-05
6.44172e-05
6.44265e-05
2.35478e-05
2.35487e-05
7.98074e-05
0.000107689
7.33369e-05
9.23624e-05
7.98047e-05
0.000107686
7.33413e-05
7.59692e-05
4.94893e-05
7.59545e-05
4.94897e-05
7.59747e-05
4.94901e-05
7.59614e-05
4.94905e-05
2.35477e-05
2.35486e-05
2.35472e-05
2.35481e-05
3.61541e-05
4.03613e-05
7.59604e-05
7.53727e-05
4.0361e-05
7.53616e-05
3.61547e-05
2.0128e-05
7.01972e-05
4.94934e-05
7.02091e-05
2.0127e-05
3.6155e-05
7.59713e-05
4.03612e-05
7.53632e-05
4.03617e-05
7.53712e-05
3.61545e-05
2.01267e-05
7.02099e-05
4.94922e-05
7.01971e-05
2.0128e-05
2.35491e-05
2.35482e-05
7.27306e-05
2.14865e-05
2.14836e-05
2.14855e-05
2.14827e-05
7.2737e-05
7.99359e-05
8.16098e-05
6.44298e-05
4.72213e-05
8.16205e-05
4.72218e-05
7.99257e-05
7.99743e-05
8.16134e-05
6.44308e-05
4.72133e-05
8.16233e-05
4.72137e-05
7.99642e-05
7.99238e-05
4.72218e-05
6.44247e-05
8.16254e-05
8.16081e-05
4.72213e-05
7.9934e-05
7.99622e-05
4.72138e-05
6.44257e-05
8.16275e-05
8.16108e-05
4.72132e-05
7.99721e-05
7.27375e-05
2.14855e-05
2.14827e-05
2.14865e-05
2.14836e-05
7.27301e-05
3.61545e-05
7.59608e-05
4.03617e-05
7.53728e-05
4.03612e-05
7.53618e-05
3.61552e-05
2.01283e-05
7.01985e-05
4.94934e-05
2.0127e-05
7.02114e-05
3.61552e-05
7.59708e-05
4.03612e-05
7.53638e-05
3.61545e-05
4.03617e-05
7.53716e-05
2.0127e-05
7.02116e-05
4.94933e-05
7.01978e-05
2.01283e-05
2.35491e-05
2.35482e-05
3.61562e-05
7.53888e-05
4.03615e-05
7.59675e-05
7.5378e-05
4.0361e-05
3.61569e-05
2.01295e-05
4.94914e-05
7.02199e-05
7.02312e-05
2.01283e-05
2.01283e-05
7.02317e-05
4.9491e-05
7.02193e-05
2.01295e-05
3.61569e-05
7.59772e-05
7.53792e-05
4.0361e-05
7.53876e-05
4.03615e-05
3.61562e-05
2.35469e-05
2.35459e-05
7.27306e-05
2.14865e-05
2.14836e-05
2.14855e-05
2.14827e-05
7.27366e-05
7.9936e-05
8.16108e-05
4.72213e-05
6.443e-05
7.99259e-05
8.1621e-05
4.72218e-05
7.99744e-05
8.16135e-05
4.72133e-05
6.44307e-05
7.99643e-05
8.16232e-05
4.72137e-05
7.27375e-05
2.14855e-05
2.14827e-05
7.27301e-05
2.14865e-05
2.14836e-05
7.9924e-05
4.72218e-05
6.44248e-05
8.16223e-05
8.16087e-05
4.72213e-05
7.99328e-05
7.99622e-05
4.72138e-05
6.44255e-05
8.16239e-05
8.1611e-05
4.72132e-05
7.9971e-05
3.61563e-05
4.03616e-05
7.53884e-05
7.59621e-05
4.03614e-05
7.53776e-05
3.6157e-05
2.01292e-05
4.94947e-05
7.02201e-05
7.02316e-05
2.0128e-05
2.0128e-05
7.02319e-05
4.94942e-05
7.02196e-05
2.01292e-05
3.6157e-05
7.5972e-05
4.03614e-05
7.53788e-05
4.03618e-05
7.53872e-05
3.61563e-05
3.61547e-05
4.03608e-05
7.59697e-05
7.53607e-05
3.6154e-05
4.03613e-05
7.53718e-05
2.01267e-05
7.02121e-05
4.94926e-05
2.01283e-05
7.01978e-05
3.61543e-05
7.59605e-05
4.03617e-05
7.53738e-05
3.61552e-05
4.0361e-05
7.53628e-05
2.0128e-05
7.01968e-05
4.94926e-05
2.01267e-05
7.02097e-05
3.6157e-05
4.03611e-05
7.53764e-05
7.59721e-05
3.61563e-05
4.03616e-05
7.53872e-05
2.0128e-05
4.94942e-05
7.02322e-05
7.02198e-05
2.01292e-05
2.01292e-05
7.02193e-05
4.94947e-05
2.0128e-05
7.02317e-05
3.61563e-05
7.59629e-05
4.03619e-05
7.53883e-05
4.03612e-05
7.53775e-05
3.6157e-05
7.27301e-05
2.14841e-05
2.14866e-05
2.14831e-05
2.14856e-05
7.27365e-05
7.99734e-05
8.16051e-05
6.44291e-05
4.72139e-05
4.72143e-05
8.16146e-05
7.99632e-05
7.99375e-05
8.15998e-05
6.442e-05
4.72209e-05
8.16103e-05
4.72214e-05
7.99276e-05
7.99613e-05
4.72144e-05
6.44239e-05
8.16239e-05
4.72138e-05
8.16064e-05
7.99715e-05
7.99256e-05
4.72214e-05
6.44146e-05
8.16183e-05
8.16014e-05
4.72209e-05
7.99355e-05
7.2737e-05
2.14831e-05
2.14856e-05
2.14841e-05
2.14866e-05
7.27296e-05
2.35495e-05
2.35485e-05
2.35482e-05
2.35491e-05
7.2737e-05
2.14832e-05
2.14856e-05
7.27295e-05
2.14841e-05
2.14866e-05
7.99655e-05
8.16244e-05
6.44242e-05
4.72144e-05
8.16075e-05
4.72138e-05
7.99721e-05
7.99294e-05
8.16188e-05
6.44147e-05
4.72214e-05
4.72209e-05
8.16019e-05
7.9936e-05
7.99736e-05
4.72138e-05
8.16031e-05
6.44292e-05
8.16192e-05
7.99634e-05
4.72143e-05
7.99375e-05
4.72209e-05
8.15976e-05
6.44199e-05
7.99275e-05
4.72214e-05
8.16133e-05
7.27291e-05
2.14841e-05
2.14866e-05
2.14831e-05
2.14856e-05
7.27366e-05
2.35485e-05
2.35495e-05
3.61567e-05
7.53866e-05
4.03612e-05
7.59597e-05
7.53758e-05
4.03607e-05
3.61574e-05
2.01299e-05
4.94933e-05
7.02197e-05
7.02312e-05
2.01287e-05
2.01287e-05
7.02316e-05
4.94929e-05
7.02191e-05
2.01299e-05
3.61574e-05
7.59696e-05
7.5377e-05
4.03607e-05
7.53854e-05
4.03612e-05
3.61567e-05
3.61546e-05
4.03611e-05
7.53791e-05
7.59588e-05
4.03606e-05
7.53684e-05
3.61552e-05
2.01286e-05
4.94901e-05
7.01999e-05
7.02113e-05
2.01274e-05
2.01274e-05
7.02118e-05
4.94897e-05
7.01994e-05
2.01286e-05
3.61552e-05
7.59687e-05
4.03607e-05
7.53695e-05
4.03611e-05
7.53779e-05
3.61545e-05
3.61574e-05
7.53747e-05
4.03607e-05
7.59704e-05
3.61567e-05
7.53854e-05
4.03612e-05
2.01287e-05
4.94929e-05
7.02316e-05
7.02192e-05
2.01299e-05
2.01299e-05
7.02186e-05
4.94933e-05
2.01287e-05
7.02311e-05
3.61567e-05
7.596e-05
7.53866e-05
4.03612e-05
7.53757e-05
4.03607e-05
3.61574e-05
3.61552e-05
4.03606e-05
7.53672e-05
7.59695e-05
3.61545e-05
4.03611e-05
7.53779e-05
2.01274e-05
4.94897e-05
7.02118e-05
7.01994e-05
2.01286e-05
2.01286e-05
7.01989e-05
4.94902e-05
2.01274e-05
7.02113e-05
3.61546e-05
7.59592e-05
4.03611e-05
7.5379e-05
4.03607e-05
7.53682e-05
3.61552e-05
3.61543e-05
4.03608e-05
7.59567e-05
7.53698e-05
7.53587e-05
4.03603e-05
3.61549e-05
2.01288e-05
7.01995e-05
4.94895e-05
7.02106e-05
2.01276e-05
3.61549e-05
7.59666e-05
7.53604e-05
4.03603e-05
7.53686e-05
4.03608e-05
3.61543e-05
2.01276e-05
7.0211e-05
4.94891e-05
7.01988e-05
2.01288e-05
3.61561e-05
7.53764e-05
4.03613e-05
7.59631e-05
7.53649e-05
4.03608e-05
3.61568e-05
2.01293e-05
4.94905e-05
7.02111e-05
7.02245e-05
2.01281e-05
2.01281e-05
7.02249e-05
4.94901e-05
7.02105e-05
2.01294e-05
3.61568e-05
7.59722e-05
7.53667e-05
4.03608e-05
7.53748e-05
4.03613e-05
3.61561e-05
3.61549e-05
4.03603e-05
7.59671e-05
7.53575e-05
3.61543e-05
7.53687e-05
4.03608e-05
2.01276e-05
7.02111e-05
4.94893e-05
7.01988e-05
2.01288e-05
3.61543e-05
7.59566e-05
7.53702e-05
4.03608e-05
7.53589e-05
4.03603e-05
3.61549e-05
2.01288e-05
7.01983e-05
4.94895e-05
2.01276e-05
7.02105e-05
3.61568e-05
7.53641e-05
4.03608e-05
7.5973e-05
3.61561e-05
7.53755e-05
4.03613e-05
2.01281e-05
4.94901e-05
7.0225e-05
7.02104e-05
2.01294e-05
2.01293e-05
7.02099e-05
4.94905e-05
2.01281e-05
7.02244e-05
3.61561e-05
7.59635e-05
7.53764e-05
4.03613e-05
7.53652e-05
4.03608e-05
3.61568e-05
2.35486e-05
2.35477e-05
2.35481e-05
2.35472e-05
7.27375e-05
2.14855e-05
2.14827e-05
7.27301e-05
2.14865e-05
2.14836e-05
7.99273e-05
8.16231e-05
6.44249e-05
4.72218e-05
7.99342e-05
8.16074e-05
4.72213e-05
7.99657e-05
8.16256e-05
6.44257e-05
4.72138e-05
7.99722e-05
8.16097e-05
4.72132e-05
7.99357e-05
4.72212e-05
8.16045e-05
6.44299e-05
7.99256e-05
8.16199e-05
4.72218e-05
7.9974e-05
4.72132e-05
8.16064e-05
6.44307e-05
7.9964e-05
8.16219e-05
4.72137e-05
7.27296e-05
2.14865e-05
2.14836e-05
7.2737e-05
2.14855e-05
2.14827e-05
2.35477e-05
2.35486e-05
2.35471e-05
2.35481e-05
2.35495e-05
2.35489e-05
2.35483e-05
2.35474e-05
7.27158e-05
2.14861e-05
2.14832e-05
2.14851e-05
2.14827e-05
7.27234e-05
7.99588e-05
8.1618e-05
6.4428e-05
4.72175e-05
4.72215e-05
8.16353e-05
7.99404e-05
7.99833e-05
8.16115e-05
6.44262e-05
4.72163e-05
4.72135e-05
8.16273e-05
7.99628e-05
7.9945e-05
4.72231e-05
6.44232e-05
8.16417e-05
4.72223e-05
7.99543e-05
8.16256e-05
7.99687e-05
4.72119e-05
6.44208e-05
8.16313e-05
4.72119e-05
7.99781e-05
8.16164e-05
7.27227e-05
2.14846e-05
2.14831e-05
2.14859e-05
2.1484e-05
7.27136e-05
3.61563e-05
7.59628e-05
4.03619e-05
7.53882e-05
4.03614e-05
7.53775e-05
3.6157e-05
2.01292e-05
7.02193e-05
4.94947e-05
2.0128e-05
7.02316e-05
3.6157e-05
7.59732e-05
4.03614e-05
7.53764e-05
4.03619e-05
3.61563e-05
7.5387e-05
2.0128e-05
7.0232e-05
4.94942e-05
7.02196e-05
2.01292e-05
7.27303e-05
2.14841e-05
2.14866e-05
2.14831e-05
2.14856e-05
7.27364e-05
7.99744e-05
8.16029e-05
4.72138e-05
6.44296e-05
4.72143e-05
7.99641e-05
8.16191e-05
7.99381e-05
8.15981e-05
4.72209e-05
6.44202e-05
8.16138e-05
7.9928e-05
4.72214e-05
7.27372e-05
2.14832e-05
2.14856e-05
2.14841e-05
7.27298e-05
2.14866e-05
7.99622e-05
4.72144e-05
6.44244e-05
8.16179e-05
4.72138e-05
8.16058e-05
7.99711e-05
7.99262e-05
4.72215e-05
6.44148e-05
8.16146e-05
8.16023e-05
4.72209e-05
7.99349e-05
2.35495e-05
2.35485e-05
3.61536e-05
4.03613e-05
7.53694e-05
7.59625e-05
4.03608e-05
7.53583e-05
3.61543e-05
2.01278e-05
4.9487e-05
7.01928e-05
7.02059e-05
2.01265e-05
2.01265e-05
7.02064e-05
4.94866e-05
7.01922e-05
2.01278e-05
3.61543e-05
7.59718e-05
4.03608e-05
7.53599e-05
4.03613e-05
7.53681e-05
3.61536e-05
3.61567e-05
7.596e-05
7.5386e-05
4.03612e-05
7.53758e-05
4.03607e-05
3.61574e-05
2.01299e-05
7.02187e-05
4.94933e-05
7.02311e-05
2.01287e-05
3.61574e-05
7.59702e-05
7.53746e-05
4.03607e-05
7.53854e-05
3.61567e-05
4.03612e-05
2.01287e-05
7.02313e-05
4.94929e-05
7.02191e-05
2.01299e-05
3.61546e-05
7.59591e-05
4.03611e-05
7.53782e-05
4.03607e-05
7.53682e-05
3.61552e-05
2.01286e-05
7.01988e-05
4.94902e-05
2.01274e-05
7.02113e-05
3.61552e-05
7.59692e-05
4.03606e-05
7.53671e-05
3.61545e-05
4.03612e-05
7.53777e-05
2.01274e-05
7.02116e-05
4.94897e-05
7.01991e-05
2.01286e-05
7.27293e-05
2.1483e-05
2.14863e-05
2.1482e-05
2.14853e-05
7.27358e-05
7.99708e-05
8.16048e-05
6.44161e-05
4.72116e-05
4.72119e-05
8.16139e-05
7.99609e-05
7.99384e-05
8.16023e-05
6.44257e-05
4.72217e-05
8.16124e-05
4.72224e-05
7.99278e-05
7.99593e-05
4.7212e-05
6.44107e-05
8.16199e-05
4.72114e-05
8.16035e-05
7.99691e-05
7.99257e-05
4.72224e-05
6.44206e-05
8.16199e-05
8.16027e-05
4.72219e-05
7.9936e-05
7.27361e-05
2.14823e-05
2.14853e-05
2.1483e-05
2.14863e-05
7.27286e-05
2.35487e-05
2.35478e-05
3.61543e-05
7.59567e-05
7.53709e-05
4.03608e-05
7.53596e-05
4.03603e-05
3.61549e-05
2.01288e-05
7.01984e-05
4.94897e-05
7.02106e-05
2.01276e-05
3.61549e-05
7.5967e-05
7.53582e-05
4.03603e-05
7.53694e-05
3.61543e-05
4.03608e-05
2.01276e-05
7.0211e-05
4.94893e-05
7.01988e-05
2.01288e-05
3.61561e-05
7.59633e-05
7.53769e-05
4.03613e-05
7.53656e-05
4.03608e-05
3.61568e-05
2.01293e-05
7.02099e-05
4.94905e-05
2.01281e-05
7.02244e-05
3.61568e-05
7.59727e-05
7.53643e-05
4.03608e-05
3.61561e-05
7.53753e-05
4.03613e-05
2.01281e-05
7.02246e-05
4.94901e-05
7.02103e-05
2.01294e-05
2.35486e-05
2.35477e-05
2.35481e-05
2.35471e-05
0.000152399
0.000152413
0.000127497
0.000152403
0.000152413
0.00017442
0.00017442
8.52931e-05
8.33189e-05
8.33245e-05
8.51813e-05
8.33145e-05
8.332e-05
8.52896e-05
0.000152401
0.000152408
0.000127496
0.000152402
0.000152408
0.000174419
0.000174419
8.52929e-05
8.33197e-05
8.33254e-05
8.52028e-05
8.52896e-05
8.33154e-05
8.33211e-05
8.52958e-05
8.33225e-05
8.33194e-05
8.52025e-05
8.33151e-05
8.33182e-05
8.52929e-05
8.52938e-05
8.51766e-05
8.33229e-05
8.33194e-05
8.33206e-05
8.3317e-05
8.52986e-05
8.52911e-05
8.5191e-05
8.33189e-05
8.33246e-05
8.52957e-05
8.33167e-05
8.33224e-05
8.52956e-05
8.33218e-05
8.33225e-05
8.52126e-05
8.33189e-05
8.33178e-05
8.5292e-05
8.52959e-05
8.33182e-05
8.33146e-05
8.52135e-05
8.33167e-05
8.52928e-05
8.332e-05
8.52919e-05
8.33191e-05
8.33189e-05
8.52084e-05
8.33148e-05
8.33147e-05
8.52882e-05
0.000152397
0.000152416
0.000127501
0.000152398
0.000152419
0.000174421
0.000174421
0.000152398
0.000152411
0.00012749
0.000152418
0.000152401
0.000174413
0.000174413
0.000152404
0.000152412
0.000127502
0.000152406
0.000152415
0.000174417
0.000174417
0.000127494
0.000152401
0.000152409
0.000152403
0.000152413
0.000174422
0.000174421
0.0001275
0.000152397
0.000152416
0.000152396
0.000152418
0.000174423
0.000174423
0.00012749
0.000152402
0.000152418
0.000152416
0.000152401
0.000174416
0.000174415
0.000127501
0.000152404
0.000152414
0.000152404
0.000152413
0.000174419
0.000174419
7.95401e-05
8.03149e-05
8.011e-05
7.98011e-05
8.03154e-05
8.01042e-05
7.95331e-05
7.89641e-05
8.02875e-05
7.33383e-05
7.80945e-05
8.02852e-05
7.80938e-05
7.89646e-05
7.89651e-05
7.80936e-05
7.33287e-05
8.02884e-05
8.02846e-05
7.80934e-05
7.89628e-05
7.95359e-05
7.98017e-05
8.03155e-05
8.01066e-05
8.03157e-05
8.01043e-05
7.95374e-05
7.954e-05
8.01103e-05
7.97993e-05
8.03075e-05
8.01047e-05
8.03081e-05
7.9533e-05
7.89679e-05
8.02922e-05
7.80896e-05
7.33445e-05
7.80885e-05
7.89691e-05
8.02897e-05
7.95358e-05
7.98001e-05
8.01071e-05
8.03083e-05
8.01047e-05
8.03083e-05
7.95373e-05
7.89688e-05
7.8088e-05
7.33353e-05
8.0293e-05
7.80882e-05
7.89662e-05
8.02891e-05
8.52899e-05
8.51543e-05
8.33176e-05
8.33231e-05
8.33155e-05
8.33211e-05
8.5294e-05
0.000152399
0.000152418
0.000127501
0.0001524
0.000152418
0.00017442
0.000174421
0.000152401
0.000152418
0.000127488
0.000152401
0.000152419
0.000174412
0.000174413
0.000152405
0.000152416
0.0001275
0.000152404
0.000152417
0.000174416
0.000174417
7.95402e-05
7.98011e-05
8.02938e-05
8.01031e-05
8.03164e-05
8.01039e-05
7.95309e-05
7.89647e-05
8.02884e-05
7.80944e-05
7.33382e-05
7.89654e-05
8.02862e-05
7.80937e-05
7.95359e-05
7.98014e-05
8.03153e-05
8.01064e-05
7.95374e-05
8.03155e-05
8.0104e-05
7.89656e-05
7.80836e-05
7.33289e-05
8.03334e-05
8.02862e-05
7.80933e-05
7.89608e-05
7.95403e-05
7.97991e-05
8.011e-05
8.0309e-05
8.01047e-05
8.03085e-05
7.95331e-05
7.89678e-05
8.02923e-05
7.80892e-05
7.33437e-05
7.89682e-05
8.02901e-05
7.80881e-05
7.95361e-05
7.97998e-05
8.0107e-05
8.03083e-05
7.95376e-05
8.01046e-05
8.03083e-05
7.89687e-05
7.80884e-05
7.33352e-05
8.02933e-05
8.02894e-05
7.80881e-05
7.89662e-05
8.52898e-05
8.51689e-05
8.3316e-05
8.33217e-05
8.33161e-05
8.33219e-05
8.52732e-05
7.95415e-05
8.01085e-05
7.9805e-05
8.03121e-05
8.03125e-05
8.01028e-05
7.95345e-05
7.89696e-05
8.02934e-05
7.80899e-05
7.33434e-05
7.80893e-05
7.89716e-05
8.0291e-05
7.95373e-05
7.98058e-05
8.03123e-05
8.01052e-05
8.03124e-05
8.0103e-05
7.95388e-05
7.89701e-05
7.80892e-05
7.33334e-05
8.02941e-05
7.80892e-05
7.8967e-05
8.029e-05
7.95463e-05
8.03219e-05
8.01106e-05
7.98078e-05
8.03229e-05
8.01046e-05
7.95391e-05
7.8971e-05
8.02948e-05
7.33489e-05
7.81026e-05
7.81016e-05
8.02926e-05
7.89724e-05
7.89719e-05
7.81002e-05
7.33403e-05
8.02961e-05
7.81007e-05
7.89692e-05
8.02922e-05
7.95421e-05
7.98085e-05
8.03231e-05
8.01071e-05
8.03233e-05
8.01049e-05
7.95438e-05
7.95373e-05
8.00988e-05
7.98027e-05
8.03112e-05
7.95389e-05
8.0311e-05
8.01039e-05
7.89747e-05
8.02963e-05
7.80883e-05
7.33369e-05
7.80881e-05
7.89637e-05
8.02921e-05
7.95361e-05
7.98034e-05
8.03107e-05
8.01082e-05
8.03114e-05
8.01029e-05
7.95345e-05
7.89688e-05
7.80876e-05
8.02881e-05
7.33455e-05
7.89704e-05
7.8088e-05
8.02921e-05
7.95418e-05
8.03208e-05
8.01005e-05
7.98052e-05
7.95433e-05
8.03208e-05
8.01059e-05
7.89789e-05
8.0297e-05
7.33379e-05
7.8101e-05
7.81002e-05
8.02931e-05
7.89672e-05
7.89722e-05
7.80989e-05
8.02896e-05
7.33469e-05
7.89742e-05
7.81e-05
8.02935e-05
7.95406e-05
7.98062e-05
8.03215e-05
8.01098e-05
8.03215e-05
8.01046e-05
7.9539e-05
8.52927e-05
8.51689e-05
8.33213e-05
8.33178e-05
8.3316e-05
8.33194e-05
8.52963e-05
8.52976e-05
8.51941e-05
8.33167e-05
8.33131e-05
8.33191e-05
8.52924e-05
8.33155e-05
7.95444e-05
8.0113e-05
8.03149e-05
7.98039e-05
8.01076e-05
8.03155e-05
7.95372e-05
7.89695e-05
8.0295e-05
7.33442e-05
7.80933e-05
8.02926e-05
7.80923e-05
7.89704e-05
7.89702e-05
7.80923e-05
7.33356e-05
8.02958e-05
8.02919e-05
7.80919e-05
7.89676e-05
7.95401e-05
7.98047e-05
8.01104e-05
8.03162e-05
8.01079e-05
8.0316e-05
7.95417e-05
7.9536e-05
8.03138e-05
8.01002e-05
7.97997e-05
7.95373e-05
8.0314e-05
8.01052e-05
7.89711e-05
8.0289e-05
7.33292e-05