/*--------------------------------*- C++ -*----------------------------------*\
| =========                 |                                                 |
| \\      /  F ield         | OpenFOAM: The Open Source CFD Toolbox           |
|  \\    /   O peration     | Version:  v1912                                 |
|   \\  /    A nd           | Website:  www.openfoam.com                      |
|    \\/     M anipulation  |                                                 |
\*---------------------------------------------------------------------------*/
FoamFile
{
    version     2.0;
    format      ascii;
    class       surfaceScalarField;
    location    "120";
    object      phi;
}
// * * * * * * * * * * * * * * * * * * * * * * * * * * * * * * * * * * * * * //

dimensions      [0 3 -1 0 0 0 0];
oriented        oriented;


internalField   nonuniform List<scalar> 
166251
(
-6.94709e-09
-1.31291e-08
9.8037e-05
-9.80169e-05
-1.31917e-09
5.49487e-08
0.000256844
-0.000256672
-2.25778e-07
5.43703e-10
3.46461e-08
1.31805e-06
0.00114358
4.43898e-08
-9.85657e-07
2.75856e-07
-3.03708e-07
9.68323e-07
-1.32228e-06
2.95125e-07
-3.11479e-07
-3.8701e-09
0.00114998
6.73756e-08
-1.07973e-06
8.7415e-07
-8.99202e-07
1.05904e-06
1.50106e-08
3.22553e-08
0.00024939
-1.10066e-08
-0.000249302
-1.24555e-07
-1.35314e-06
-1.31811e-06
0.000275997
-0.00027388
2.74578e-07
2.79999e-07
-1.74472e-08
1.0983e-08
0.000280943
8.67636e-09
-0.00028091
-3.54003e-08
-1.74465e-08
1.09946e-08
0.000280886
9.24368e-09
-0.000280856
-3.31406e-08
1.7035e-08
4.215e-09
9.80296e-05
1.471e-08
4.23947e-09
9.8032e-05
1.36403e-06
1.32062e-06
0.000273876
-2.70666e-07
-2.76081e-07
1.64228e-08
-1.09355e-08
4.26996e-08
0.000280906
1.65676e-08
-8.63471e-09
4.0067e-08
0.000280861
1.97924e-10
5.73014e-08
-2.12581e-08
6.23987e-10
0.000233054
4.31673e-08
-6.58974e-09
0.000194671
5.73648e-08
-2.13061e-08
6.26078e-10
0.000233091
4.10909e-08
-4.23303e-09
-6.63632e-09
0.000194719
1.54537e-09
4.76533e-10
2.30819e-07
0.00025668
3.12757e-08
3.45116e-08
1.36314e-06
-3.18559e-07
3.01817e-07
9.70622e-07
-3.0152e-07
2.72157e-07
-9.88895e-07
0.0011431
5.56362e-09
1.43175e-07
0.000249298
4.20837e-09
5.51138e-08
1.06774e-06
-9.01569e-07
-1.08229e-06
8.8284e-07
0.00115036
-3.18869e-10
2.2835e-07
0.000256712
3.09806e-08
-1.36981e-06
3.97252e-08
9.76342e-07
-3.01722e-07
-9.92037e-07
2.77799e-07
1.36885e-06
-3.21504e-07
3.07522e-07
0.00114355
-1.41268e-08
5.64875e-09
1.4084e-07
0.000249308
6.07399e-08
1.0708e-06
-9.01759e-07
-1.08533e-06
8.82891e-07
0.00115051
1.48068e-08
9.80376e-05
1.32603e-06
0.000273899
-2.73571e-07
-2.78455e-07
-8.33522e-09
4.25796e-08
0.000280848
-1.69355e-08
1.39297e-08
-1.12425e-08
4.01375e-08
0.000280957
4.23416e-09
9.80374e-05
-5.49965e-08
0.000233082
-0.000233047
1.84095e-08
1.47716e-09
-3.43926e-08
0.000194679
-2.70773e-09
-0.000194649
0.000256842
-0.000256674
-2.25863e-07
1.0234e-09
3.56765e-08
0.00114322
1.35879e-06
4.4519e-08
-9.88713e-07
2.75769e-07
9.7115e-07
-3.03822e-07
-1.36334e-06
3.03307e-07
-3.20237e-07
0.00115021
6.72012e-08
-1.07978e-06
8.74273e-07
-8.96448e-07
1.06219e-06
0.000249332
1.73087e-08
-1.33764e-08
-0.000249245
-1.244e-07
5.9974e-08
2.00338e-10
6.20791e-10
-1.92712e-08
0.00023308
4.09658e-08
-6.52797e-09
0.000194703
1.87359e-09
8.71166e-11
2.30862e-07
0.000256698
2.9775e-08
3.37233e-08
1.32247e-06
-3.09949e-07
3.0201e-07
9.73636e-07
-2.96058e-07
2.80741e-07
-9.8345e-07
0.00114419
8.14393e-09
1.40536e-07
0.00024931
5.46959e-09
5.48661e-08
1.06757e-06
-8.96017e-07
-1.07968e-06
8.79949e-07
0.00115024
5.75616e-08
-1.93403e-08
7.18085e-10
0.000233043
4.33046e-08
-4.21852e-09
-6.64821e-09
0.000194646
2.30964e-07
-4.6695e-11
0.00025667
3.08338e-08
-1.36137e-06
3.40371e-08
9.73332e-07
-3.01584e-07
-9.86325e-07
2.77766e-07
1.36039e-06
-3.18658e-07
3.04622e-07
0.00114321
5.49051e-08
1.06486e-06
-8.93214e-07
-1.07677e-06
8.77133e-07
0.00115022
-1.6552e-08
8.19255e-09
1.40764e-07
0.000249242
5.49517e-08
0.000256853
-0.00025669
-2.20672e-07
1.11252e-09
3.55793e-08
0.00114301
4.47282e-08
-1.35764e-06
2.97654e-07
-3.14415e-07
-9.85956e-07
2.7286e-07
-3.01046e-07
9.68321e-07
0.00115021
6.72978e-08
-1.07976e-06
8.79915e-07
-9.02064e-07
1.06215e-06
3.21773e-08
0.000249379
-1.1037e-08
-0.000249293
-1.24402e-07
0.000233089
-0.000233056
2.04507e-08
1.52928e-09
0.00019469
6.94601e-09
-2.76202e-09
-0.000194662
-5.73897e-08
1.78109e-09
6.55982e-10
2.309e-07
0.000256709
3.01157e-08
3.39692e-08
1.32527e-06
-3.12831e-07
2.99282e-07
9.70715e-07
-2.98743e-07
-9.83392e-07
2.75137e-07
0.00114393
-4.3128e-08
5.59976e-09
1.42989e-07
0.000249356
3.43154e-09
5.53087e-08
1.06755e-06
-8.98868e-07
-1.07971e-06
8.82726e-07
0.00115028
1.45e-10
8.72207e-10
-2.13031e-08
0.000233089
-6.54405e-09
0.000194712
-5.74784e-08
2.28364e-07
-1.84861e-11
0.000256684
3.07848e-08
-1.35569e-06
3.42637e-08
9.70461e-07
-2.98795e-07
-9.835e-07
2.74862e-07
1.35472e-06
-3.12863e-07
2.98943e-07
0.001143
5.50535e-08
1.06478e-06
-8.98864e-07
-1.07677e-06
8.8275e-07
0.00115022
-4.11388e-08
-1.66294e-08
5.74224e-09
1.40832e-07
0.00024929
-2.13595e-08
6.52653e-10
0.000233052
-4.2234e-09
-6.60438e-09
0.00019466
0.000275992
-0.000273867
2.7232e-07
2.79705e-07
0.000280847
8.69934e-09
-0.000280816
-3.53437e-08
1.1005e-08
0.000280946
8.71502e-09
-0.000280915
-3.54291e-08
9.80446e-05
-6.92267e-09
-9.80267e-05
1.70668e-08
9.80157e-05
1.32033e-06
0.000273859
-2.70919e-07
-2.78481e-07
-8.28027e-09
4.26106e-08
0.000280813
-1.48437e-08
1.41568e-08
-8.26873e-09
4.26084e-08
0.000280912
4.25693e-09
9.80255e-05
5.74457e-08
0.000256873
-0.000256707
-2.25741e-07
1.55088e-09
3.48717e-08
0.00114413
4.43875e-08
-1.32249e-06
2.95103e-07
-3.1156e-07
-9.85935e-07
2.75923e-07
-3.03793e-07
9.68686e-07
0.00115011
6.73778e-08
-1.07712e-06
8.74156e-07
-8.96527e-07
1.05921e-06
3.22638e-08
0.000249396
-1.09554e-08
-0.000249308
-1.26935e-07
-1.46058e-10
0.000233082
-0.000233047
1.29913e-09
1.83758e-08
0.000194693
-2.69314e-09
-0.000194665
0.000233119
-0.000233082
1.52773e-09
1.83767e-08
0.000194731
6.94152e-09
-2.69926e-09
-0.000194703
1.40267e-09
-5.75866e-08
2.33582e-07
4.07505e-10
0.000256666
2.98547e-08
3.38332e-08
1.31964e-06
-3.09917e-07
2.96424e-07
9.70457e-07
-3.01447e-07
-9.83213e-07
2.7787e-07
0.00114357
3.36225e-09
5.51217e-08
1.06447e-06
-8.93186e-07
-1.07395e-06
8.79789e-07
0.00114998
-4.10783e-08
5.76515e-09
1.40725e-07
0.000249299
-6.01393e-08
2.33654e-07
-5.9324e-10
0.000256701
3.01435e-08
-1.32056e-06
3.38582e-08
9.70827e-07
-3.01539e-07
-9.83467e-07
2.77935e-07
1.31967e-06
-3.10022e-07
2.9638e-07
0.00114411
5.50593e-08
1.06184e-06
-8.93333e-07
-1.07411e-06
8.76993e-07
0.00115012
-4.11017e-08
-1.66073e-08
5.73136e-09
1.43163e-07
0.000249305
1.13752e-10
9.17264e-10
-1.93893e-08
0.000233043
-6.53008e-09
0.000194663
6.09977e-10
-1.94022e-08
0.000233078
-4.21865e-09
-6.57329e-09
0.000194701
9.80444e-05
-9.80265e-05
9.80485e-05
-9.80305e-05
0.000273873
-2.73346e-07
-2.78732e-07
-1.48932e-08
-8.32396e-09
4.27174e-08
0.000280907
-1.48765e-08
-8.79472e-09
4.03348e-08
0.000280853
9.80253e-05
9.80294e-05
4.20341e-09
1.71986e-08
-8.15955e-09
-8.20183e-09
0.000215747
1.57944e-08
1.79044e-08
-8.09305e-05
-6.85842e-09
-6.7634e-09
8.09441e-05
-8.09192e-05
-6.82783e-09
-6.82511e-09
8.09329e-05
6.42199e-09
6.40856e-09
-1.30971e-08
-1.53516e-08
0.000215762
2.9887e-08
-2.43304e-08
0.000225065
5.1463e-08
-0.000184305
-2.18686e-08
0.000184329
4.33377e-08
-8.33782e-09
-1.50237e-08
1.67149e-08
-0.000255515
2.26344e-08
0.000255569
-8.13312e-08
-3.04977e-08
8.81262e-08
4.33571e-08
0.000225103
-5.02773e-08
2.98027e-08
-2.24047e-08
0.000225001
5.17619e-08
-0.00018426
-1.99252e-08
0.000184283
4.09567e-08
-8.79817e-09
-1.5017e-08
1.66829e-08
-0.000255416
2.2781e-08
0.000255477
-8.63815e-08
-3.06154e-08
9.30101e-08
4.32855e-08
0.000225039
-5.04722e-08
-1.34198e-08
-6.92391e-09
9.805e-05
-1.11059e-08
-6.90897e-09
9.805e-05
-0.000215745
6.93423e-09
8.87278e-09
-1.10724e-08
-1.79399e-08
0.000215759
8.05499e-09
8.09339e-05
6.44492e-09
8.03897e-09
8.09167e-05
6.24034e-09
1.77932e-08
1.75614e-08
-5.13489e-09
8.0946e-05
-8.46683e-09
8.0934e-05
-0.000225061
1.99692e-08
-2.05557e-08
-4.85617e-08
0.000225099
2.43259e-08
0.000184304
-3.20482e-08
0.00025551
8.94706e-08
4.53687e-08
9.13678e-09
-3.11352e-08
-1.50205e-08
0.00028093
5.1003e-08
0.000184328
-7.97841e-08
-2.84485e-08
0.000255567
-0.000224999
2.46932e-08
-2.8245e-08
-5.35552e-08
0.000225038
2.18912e-08
0.000184255
-2.90985e-08
0.00025542
8.66155e-08
4.51216e-08
1.13876e-08
-3.86349e-08
-1.74991e-08
0.000280895
5.10172e-08
0.000184282
-9.2906e-08
-3.63581e-08
0.000255483
-0.000143799
9.23606e-11
-1.86772e-08
1.25231e-09
0.000143816
1.75078e-09
0.000171786
4.77305e-11
-2.10929e-08
0.000226259
1.09647e-09
5.62393e-08
2.07412e-08
1.44281e-09
1.17532e-10
-5.32612e-08
0.000233085
1.59139e-09
5.21872e-11
0.000171807
3.93444e-09
-5.60856e-08
0.000226294
-7.9279e-05
-1.60439e-08
7.92963e-05
-2.22328e-08
0.000265302
5.1596e-08
-2.60143e-09
-3.48563e-08
0.000194701
-4.91262e-08
0.000265336
-0.00014387
1.20594e-11
-1.87686e-08
1.32916e-09
0.000143887
1.81982e-09
0.000171821
-1.90989e-08
0.000226345
1.134e-09
5.63601e-08
2.07292e-08
1.53456e-09
-5.32415e-08
0.000233122
1.83471e-09
0.000171842
4.01862e-09
-5.61604e-08
0.00022638
-7.93229e-05
-1.6155e-08
7.93404e-05
-2.01042e-08
0.000265412
5.17514e-08
-2.68374e-09
6.95373e-09
-3.26917e-08
0.000194748
-4.92179e-08
0.000265446
-1.11769e-08
9.80557e-05
-0.000215754
6.98807e-09
6.93168e-09
-1.55326e-08
-1.34979e-08
0.000215769
8.01395e-09
8.0921e-05
6.41613e-09
8.10392e-09
8.09328e-05
6.28513e-09
1.76785e-08
1.53857e-08
-6.77733e-09
8.09347e-05
-6.78997e-09
8.09466e-05
-2.30675e-08
-0.000225002
2.22016e-08
-4.87221e-08
0.000225036
2.39374e-08
0.000184256
0.000255406
-2.94499e-08
4.27405e-08
8.93588e-08
-3.60386e-08
8.69038e-09
-1.51101e-08
0.00028088
-3.10477e-08
-8.50399e-08
0.000255463
4.85395e-08
0.00018428
-0.000225075
2.04576e-08
-2.56894e-08
-5.32928e-08
0.00022512
2.22218e-08
0.000184309
-3.1724e-08
0.000255559
9.1878e-08
4.25787e-08
1.17484e-08
-3.36976e-08
1.33025e-08
-1.49558e-08
0.00028098
5.32633e-08
0.000184335
-8.7658e-08
-3.11865e-08
0.000255619
-6.91074e-09
9.80576e-05
-1.81269e-09
2.14035e-08
0.000143796
1.69335e-09
-1.95698e-08
4.66938e-10
5.83389e-08
-0.000171786
-2.88204e-11
0.000171804
-0.000226251
2.046e-08
3.9745e-09
0.000226284
-5.52862e-08
1.14659e-09
5.71123e-08
1.53464e-09
0.000143815
2.23971e-08
7.92776e-05
-0.000265296
1.80552e-08
0.000265328
-4.84754e-08
-6.71274e-09
4.37057e-08
5.23156e-08
7.92972e-05
-0.000143868
-1.87593e-08
5.73486e-11
1.25922e-09
0.000143885
-1.9135e-08
0.000226342
1.0738e-09
5.89282e-08
1.78775e-09
0.000171818
-1.462e-11
1.71708e-09
1.86988e-08
-2.59621e-11
-5.83123e-08
0.000233118
1.7614e-09
3.91811e-09
-5.85913e-08
0.000226379
-1.68687e-12
0.000171837
-7.93249e-05
-1.62256e-08
7.93424e-05
-2.00312e-08
0.000265418
5.17189e-08
-2.54543e-09
-3.27366e-08
0.000194731
-4.92629e-08
0.000265453
-0.000143794
2.8673e-11
-2.06729e-08
1.49288e-09
0.000143813
1.79277e-09
0.000171783
-2.11857e-08
0.000226248
1.15823e-09
5.64491e-08
1.86275e-08
1.7033e-09
-5.57344e-08
0.000233078
1.65928e-09
0.000171802
3.97941e-09
-5.59705e-08
0.000226281
-7.92767e-05
-1.82208e-08
7.92964e-05
-2.22252e-08
0.000265293
5.17969e-08
-2.63714e-09
6.93992e-09
-3.48306e-08
0.000194677
-4.90083e-08
0.000265325
-1.78838e-09
1.94148e-08
0.000143801
1.83967e-09
-2.15884e-08
4.26327e-10
5.82512e-08
-0.000171786
-6.51425e-11
0.000171806
-0.000226258
1.84711e-08
4.04029e-09
0.000226295
-5.78317e-08
1.09402e-09
5.96792e-08
1.32109e-09
0.000143818
2.02826e-08
7.92831e-05
-0.000265308
1.5998e-08
0.000265344
-5.10319e-08
-6.68373e-09
-4.22011e-09
4.15646e-08
5.47989e-08
7.93004e-05
-0.000143871
-1.87482e-08
3.52129e-11
1.28761e-09
0.000143888
-1.9104e-08
0.00022635
1.04667e-09
5.88779e-08
1.81097e-09
0.000171818
-2.98811e-11
1.52301e-09
2.07131e-08
-2.28453e-11
-5.5731e-08
0.000233122
1.78148e-09
3.97743e-09
-5.85816e-08
0.000226387
-1.47085e-11
0.000171839
-7.93268e-05
-1.61914e-08
7.93443e-05
-2.00377e-08
0.00026543
5.41221e-08
-2.56017e-09
-3.4927e-08
0.000194742
-5.16556e-08
0.000265467
-0.000143799
5.86007e-11
-1.86807e-08
1.27645e-09
0.000143816
1.7585e-09
0.000171783
-1.9196e-08
0.000226255
1.08929e-09
5.90089e-08
2.06635e-08
1.73905e-09
-5.56656e-08
0.000233085
1.78728e-09
0.000171804
4.0207e-09
-5.85092e-08
0.000226292
-7.92821e-05
-1.61639e-08
7.92996e-05
-2.01e-08
0.000265304
5.42747e-08
-2.67849e-09
6.94573e-09
-3.26306e-08
0.000194688
-5.15755e-08
0.000265341
-8.16685e-09
-8.20143e-09
0.00021574
1.58579e-08
1.78503e-08
-8.09138e-05
-6.83702e-09
-6.79307e-09
8.09274e-05
-8.09319e-05
-6.84799e-09
-6.78682e-09
8.09456e-05
6.40673e-09
6.37575e-09
-1.31529e-08
-1.52851e-08
0.000215755
-2.43237e-08
2.99023e-08
0.000224984
5.39091e-08
-0.000184249
-2.18632e-08
0.000184272
-8.30984e-09
4.32343e-08
1.6644e-08
-0.000255373
2.26326e-08
0.000255434
-3.30274e-08
-8.64248e-08
4.59642e-08
9.30906e-08
0.000225025
-5.27207e-08
2.97573e-08
-2.43669e-08
0.000225064
4.93336e-08
-0.000184307
-2.18554e-08
0.000184331
4.3256e-08
-8.26372e-09
-1.50009e-08
1.42259e-08
-0.000255525
2.27689e-08
0.000255579
-2.80698e-08
-8.39123e-08
4.06491e-08
9.05858e-08
0.000225097
-4.79539e-08
4.23885e-09
-1.32759e-08
9.80359e-05
-0.000215738
6.91019e-09
6.9371e-09
-1.3405e-08
-1.55214e-08
0.000215753
8.09171e-09
8.0913e-05
6.38243e-09
8.10022e-09
8.09311e-05
6.37807e-09
1.56109e-08
1.76227e-08
-6.81333e-09
8.09267e-05
-6.79344e-09
8.09448e-05
-2.30471e-08
-0.000224982
2.21443e-08
-5.32815e-08
0.000225022
2.4047e-08
0.000184246
0.000255369
-2.95141e-08
4.53599e-08
9.18933e-08
-3.59437e-08
8.72896e-09
-1.74238e-08
0.000280844
-3.36095e-08
-8.74985e-08
0.000255431
5.33254e-08
0.00018427
-0.000225061
2.21575e-08
-2.31829e-08
-4.85366e-08
0.000225095
2.4069e-08
0.000184305
-2.93715e-08
0.000255522
8.93623e-08
4.0052e-08
8.73179e-09
-3.60391e-08
1.1167e-08
-1.51173e-08
0.000280944
4.87291e-08
0.000184329
-8.49935e-08
-2.86395e-08
0.000255576
-6.92151e-09
9.80436e-05
1.94616e-08
-1.66075e-09
0.0001438
1.83795e-09
4.43439e-10
-1.96179e-08
-1.68553e-11
5.83864e-08
-0.000226255
1.84527e-08
4.01063e-09
0.000226292
-5.78131e-08
-0.000171785
5.63827e-12
-1.46512e-11
0.000171804
1.07368e-09
5.97294e-08
-9.99986e-12
1.34339e-09
0.000143817
2.02826e-08
7.92831e-05
-0.000265305
1.59827e-08
0.000265342
-5.10381e-08
-6.63017e-09
4.15194e-08
5.48048e-08
7.93004e-05
1.94694e-08
-1.79678e-09
0.000143872
1.80663e-09
6.4168e-10
-1.96295e-08
6.09375e-08
-0.000226343
1.84531e-08
3.94992e-09
0.00022638
-5.77846e-08
-0.00017182
-1.7931e-11
0.000171839
1.09576e-09
5.97811e-08
1.31215e-09
0.000143889
2.02584e-08
7.9327e-05
-0.000265416
1.6021e-08
0.00026545
-4.86607e-08
-6.66696e-09
-4.20986e-09
4.15352e-08
5.23778e-08
7.93443e-05
-0.000143798
-1.86637e-08
-1.4588e-10
1.28852e-09
0.000143815
-1.92377e-08
0.000226252
1.08529e-09
5.90506e-08
1.80907e-09
0.000171783
-8.20927e-12
1.73326e-09
1.86251e-08
-9.09674e-12
-5.57357e-08
0.000233078
1.80619e-09
4.00371e-09
-5.84998e-08
0.000226289
-1.235e-11
0.000171801
-7.92821e-05
-1.61667e-08
7.92995e-05
-2.01212e-08
0.000265302
5.42831e-08
-2.59703e-09
-3.2725e-08
0.000194691
-5.15869e-08
0.000265339
-0.00014387
-1.86782e-08
5.80949e-11
1.25675e-09
0.000143887
-1.9246e-08
0.00022634
1.07144e-09
5.90848e-08
1.76465e-09
0.000171818
1.49566e-09
1.86149e-08
-5.82277e-08
0.000233116
1.7563e-09
3.9341e-09
-5.84955e-08
0.000226377
0.000171836
-7.9326e-05
-1.61971e-08
7.93434e-05
-2.00836e-08
0.000265413
5.18367e-08
-2.58467e-09
6.92459e-09
-3.27273e-08
0.000194729
-4.92032e-08
0.000265447
-0.000215745
6.93824e-09
6.91016e-09
-1.33385e-08
-1.55893e-08
0.00021576
8.07707e-09
8.09296e-05
6.40765e-09
8.1074e-09
8.09183e-05
6.40541e-09
1.55538e-08
1.76726e-08
-6.77659e-09
8.09433e-05
-6.83783e-09
8.09321e-05
-0.000225062
-2.30379e-08
2.21484e-08
-5.08408e-08
0.0002251
2.4053e-08
0.000184303
-2.95063e-08
0.000255512
4.27791e-08
8.69314e-08
-3.59883e-08
8.69941e-09
1.11285e-08
-1.75463e-08
0.000280941
5.08663e-08
-3.10449e-08
-8.23968e-08
0.000255566
0.000184327
-0.000224998
-2.31837e-08
2.02175e-08
-5.1047e-08
0.000225037
2.21136e-08
0.000184258
-2.94255e-08
0.000255412
4.27278e-08
9.18166e-08
-3.37357e-08
9.26032e-09
1.11547e-08
-1.75414e-08
0.000280884
5.11561e-08
-3.11632e-08
-8.74464e-08
0.000255474
0.000184281
9.80434e-05
9.80475e-05
2.88075e-08
2.85759e-08
0.00116081
3.99683e-08
0.00116955
4.02519e-08
-6.87677e-10
0.00117003
-2.90086e-10
0.0011797
2.87521e-08
2.87413e-08
0.00116102
4.01148e-08
0.00116964
4.0255e-08
0.00117007
0.00117974
2.20383e-08
2.80008e-08
0.00116122
3.8687e-08
6.72407e-10
0.00116998
3.30653e-08
3.64235e-09
0.00117042
4.32285e-11
1.71369e-09
0.00118037
2.24529e-08
2.22477e-08
0.00116124
3.2881e-08
0.00117002
3.30977e-08
7.62066e-10
0.0011705
7.0361e-10
0.0011804
2.231e-08
2.21685e-08
0.00116083
3.28824e-08
0.0011696
3.31147e-08
3.76791e-10
0.00117007
-4.98489e-11
0.00117976
2.23634e-08
2.24022e-08
0.00116105
3.30149e-08
0.00116968
3.31142e-08
0.00117011
0.0011798
4.45777e-09
-2.4905e-07
0.00027207
-1.74613e-08
2.35537e-07
-1.10497e-09
-9.81598e-12
-0.000272424
-1.96325e-09
-4.07e-09
0.000273079
-0.000255366
-2.43246e-07
4.72946e-09
0.000255548
1.22146e-09
-3.94826e-09
8.29483e-09
0.000272875
-1.79546e-08
-2.27682e-07
0.00027048
-0.00025569
-2.20653e-07
0.000255853
1.41901e-07
5.82158e-09
-0.000266085
-9.84209e-09
0.000266218
0.000271227
1.42554e-07
1.42658e-07
0.000247633
-2.7489e-07
-2.80279e-07
-0.000266421
1.38857e-07
0.000266773
-0.000266855
1.39144e-07
0.000267204
0.00024781
-0.000247637
-1.37014e-07
-1.42752e-07
0.000247815
2.73631e-07
2.81134e-07
0.000276007
-1.41479e-07
0.000266421
-1.3897e-07
0.000266857
0.00026678
0.000267205
-0.000272073
2.44966e-07
1.44558e-10
8.203e-10
0.000272895
2.47148e-07
0.000255369
-1.20848e-09
-1.25608e-10
0.000272432
5.01392e-09
1.60601e-09
-2.25068e-07
3.00568e-11
0.00025685
-6.19243e-09
4.89082e-09
0.000255555
-1.96051e-09
0.000273092
7.5859e-09
-0.000270473
2.21841e-07
0.000271215
2.28863e-07
0.000255683
0.000266069
1.47196e-08
-1.22884e-07
-1.10267e-08
0.000249382
0.000266197
0.00025585
-0.000272122
2.42533e-07
9.30473e-10
-1.86882e-09
0.000272951
2.44625e-07
0.000255438
-1.26304e-09
-1.00355e-09
0.00027246
1.61578e-09
-2.22449e-07
0.00025688
-3.58702e-09
4.95252e-09
0.000255621
0.000273119
-0.000270514
2.22011e-07
7.45132e-09
0.000271259
2.26403e-07
0.000255742
1.48447e-08
0.000266081
-1.11373e-08
-1.25566e-07
0.000249397
0.000255908
0.00026621
-1.39933e-07
-0.000247651
-1.39911e-07
0.000247828
2.76302e-07
2.81114e-07
0.000276035
0.000266837
-1.41699e-07
-1.41401e-07
0.000266477
0.000267196
0.00026683
1.29122e-09
-2.49008e-07
0.000272066
-6.82303e-09
2.32906e-07
-6.22731e-10
-0.000272439
-2.50166e-09
0.000273082
-0.000255352
-2.43357e-07
4.70541e-09
0.000255537
-1.43133e-09
2.61908e-10
0.000272882
-2.27735e-07
0.000270451
-1.80412e-08
-0.000255661
-2.20524e-07
0.000255824
8.24479e-09
1.41902e-07
-9.65695e-09
-0.000266024
0.000266152
0.000271192
-0.000272117
2.42381e-07
-2.74913e-09
1.39995e-08
0.000272931
2.42096e-07
0.000255438
-3.84807e-09
-2.13284e-09
0.000272443
7.43145e-09
2.49766e-09
-2.27629e-07
-3.88374e-10
0.000256865
-1.96812e-08
7.24784e-09
0.000255617
-4.42746e-09
0.000273097
1.27857e-08
-0.000270534
2.22076e-07
0.000271287
2.23558e-07
0.00025575
0.000266106
1.76139e-08
-1.30617e-07
-1.35541e-08
0.000249404
0.000266233
0.000255917
-0.000272053
1.46919e-09
2.42338e-07
-1.90939e-09
0.000272876
-4.3438e-10
0.000272428
2.44706e-07
0.00025535
-1.31451e-09
-2.24972e-07
1.55578e-09
0.000256838
-3.53272e-09
0.000273077
4.82391e-09
0.000255533
-0.000270446
2.21755e-07
1.01186e-08
0.000271186
2.26362e-07
0.000255657
1.75569e-08
0.000266019
-1.34498e-08
-1.25436e-07
0.000249329
0.000255821
0.000266148
1.529e-09
-2.46467e-07
0.000272072
-4.03877e-09
2.30305e-07
-5.75943e-10
-0.000272439
-2.42818e-09
0.000273095
-0.000255374
-2.40749e-07
4.82801e-09
0.000255553
-1.40511e-09
-2.3229e-09
0.000272893
-1.53114e-08
-2.27792e-07
0.000270469
-0.000255684
-2.20605e-07
0.000255848
1.41996e-07
5.79279e-09
-0.000266067
-7.02866e-09
0.000266192
0.000271207
-0.000272127
2.44868e-07
-1.43634e-09
1.14221e-08
0.00027294
2.47242e-07
0.000255449
-3.76358e-09
-1.28869e-09
0.000272447
6.66592e-09
1.81169e-09
-2.25012e-07
-2.6403e-10
0.000256876
-1.69691e-08
7.3138e-09
0.00025563
-3.73742e-09
0.000273107
-0.000270551
1.02388e-08
2.24442e-07
0.000271298
2.28753e-07
0.000255775
1.74778e-08
0.000266149
-1.2797e-07
-1.10051e-08
0.000249445
0.000266276
0.000255944
-0.000272064
1.4064e-09
2.423e-07
-1.85216e-09
0.000272887
-4.24888e-10
0.000272431
2.44731e-07
0.000255368
-1.2746e-09
-2.22355e-07
1.64362e-09
0.000256849
-3.50905e-09
0.000273089
4.93722e-09
0.000255549
-0.000270462
2.21846e-07
7.46701e-09
0.000271201
2.26422e-07
0.00025568
1.48566e-08
0.000266062
-1.10967e-08
-1.25449e-07
0.000249376
0.000255844
0.000266188
1.3992e-07
1.42834e-07
0.000247623
-2.80058e-07
-2.72481e-07
-0.000266808
1.38977e-07
0.000267158
-0.000266442
1.36458e-07
0.000266796
0.000247798
-1.39836e-07
-0.000247619
-1.37305e-07
0.000247794
2.7364e-07
2.8103e-07
0.000275985
0.000266802
-1.41824e-07
-1.38925e-07
0.000266436
0.000267153
0.000266791
3.94168e-09
-2.49138e-07
0.000272117
-1.74892e-08
2.35593e-07
-8.83286e-10
-0.000272454
8.94463e-11
0.000273098
-0.000255434
-2.43188e-07
7.18194e-09
0.000255614
-3.95767e-09
1.0959e-08
0.000272922
-1.52513e-08
-2.30224e-07
0.00027053
-0.000255744
-2.23236e-07
0.000255915
1.44331e-07
5.77327e-09
-0.000266103
-7.0152e-09
0.000266229
0.000271279
-0.000272062
-1.45554e-09
2.44726e-07
1.14524e-08
0.000272872
-9.84311e-10
0.000272416
4.04031e-09
2.47376e-07
0.000255361
-1.33622e-09
-2.27497e-07
2.03429e-09
5.47414e-11
0.000256836
-1.42405e-08
-1.22058e-09
0.000273068
7.27017e-09
0.000255542
-0.000270473
1.02987e-08
2.21817e-07
0.000271223
2.26403e-07
0.000255686
1.74596e-08
0.000266079
-1.25618e-07
-1.10611e-08
0.000249388
0.000266213
0.000255852
-0.000272109
-9.45992e-10
2.44763e-07
1.14422e-08
0.000272916
-3.12374e-09
0.000272445
2.47379e-07
0.000255429
-3.84752e-09
-2.27457e-07
1.82618e-09
0.000256869
-1.69719e-08
0.000273093
7.27035e-09
0.00025561
-0.000270523
2.24463e-07
7.45367e-09
0.000271273
2.28836e-07
0.00025574
1.48112e-08
0.000266098
-1.10037e-08
-1.2799e-07
0.000249393
0.000255911
0.000266225
-0.000247629
-1.397e-07
-1.3998e-07
0.000247807
2.75877e-07
2.81302e-07
0.00027599
-1.41556e-07
0.000266415
-1.41665e-07
0.000266849
0.000266768
0.000267199
1.43681e-08
4.22542e-09
9.80327e-05
-9.80513e-05
1.42913e-08
4.26848e-09
9.80313e-05
-9.80498e-05
1.35557e-06
1.31773e-06
0.000273846
-2.67151e-07
-2.75012e-07
-0.000275977
1.3832e-08
-8.55715e-09
3.86907e-08
0.000280907
-0.000280936
1.62173e-08
-8.58972e-09
3.85907e-08
0.000280861
-0.000280893
5.99812e-11
5.5157e-08
-2.04234e-08
6.43433e-10
0.000233051
-0.000233086
3.93122e-08
-5.76074e-09
0.000194678
-0.000194708
5.51948e-08
-2.04467e-08
2.89947e-10
0.000233088
-0.000233123
1.32505e-09
8.81615e-10
2.28278e-07
0.000256667
-0.000256842
1.34281e-08
-5.81603e-09
1.3646e-06
-3.11375e-07
3.05333e-07
9.79239e-07
-2.89285e-07
2.80718e-07
-9.79065e-07
-0.00114301
5.77312e-09
1.37201e-07
0.000249299
-0.000249389
2.46149e-09
6.11166e-09
1.07822e-06
-8.91938e-07
-1.07324e-06
8.93878e-07
-0.00115032
-2.05432e-10
2.28348e-07
0.000256698
-0.00025687
1.17768e-09
1.07847e-06
-8.92098e-07
-1.07343e-06
8.93943e-07
-0.00115047
5.77574e-08
1.57965e-10
3.50341e-10
-1.84401e-08
0.000233077
-0.000233117
3.93283e-08
-5.79896e-09
0.000194702
-0.000194732
1.72512e-09
2.79233e-10
2.28338e-07
0.000256683
-0.000256856
7.41009e-09
-6.32657e-09
1.32684e-06
-3.08494e-07
3.02922e-07
9.79731e-07
-2.9485e-07
2.83839e-07
-9.81685e-07
-0.00114412
8.19616e-09
1.37155e-07
0.000249308
-0.000249398
-1.85264e-10
1.17133e-08
1.0754e-06
-8.86225e-07
-1.07325e-06
8.88308e-07
-0.00115022
5.52801e-08
-1.84342e-08
3.96266e-10
0.00023304
-0.000233077
4.15423e-08
-4.36467e-09
-5.70883e-09
0.000194647
-0.000194678
2.25868e-07
-3.87117e-10
0.000256656
-0.000256824
1.88258e-08
-1.35559e-06
-5.87704e-09
9.79404e-07
-2.94898e-07
-9.79111e-07
2.83607e-07
1.36482e-06
-3.14187e-07
3.08321e-07
-0.00114313
1.17136e-08
1.07263e-06
-8.86407e-07
-1.0705e-06
8.85368e-07
-0.00115018
-1.62725e-08
8.26126e-09
1.37209e-07
0.000249241
-0.000249329
1.6398e-08
9.80155e-05
-9.80363e-05
1.31472e-06
0.000273827
-2.69804e-07
-2.74796e-07
-0.000275953
-8.17114e-09
4.08213e-08
0.000280814
-0.000280846
-1.43086e-08
1.38014e-08
-1.06407e-08
4.0949e-08
0.000280912
-0.000280942
4.2884e-09
9.80253e-05
-9.80439e-05
1.08495e-09
-5.77173e-08
2.25763e-07
3.08624e-10
0.000256654
-0.000256824
1.28647e-08
-5.93053e-09
1.32389e-06
-3.05543e-07
3.00004e-07
9.76512e-07
-2.94701e-07
-9.76027e-07
2.83708e-07
-0.00114348
-1.52438e-09
5.859e-09
1.06956e-06
-8.83425e-07
-1.0647e-06
8.85274e-07
-0.00114995
-3.93153e-08
5.80122e-09
1.39504e-07
0.000249294
-0.000249387
-5.52915e-08
2.23224e-07
-9.22655e-10
0.000256687
-0.000256853
6.02999e-09
1.06975e-06
-8.83518e-07
-1.06483e-06
8.85407e-07
-0.00115008
1.96172e-11
3.24209e-10
-2.0471e-08
0.00023304
-0.000233077
-5.69299e-09
0.000194663
-0.000194692
3.16498e-10
-1.84312e-08
0.000233075
-0.000233112
-1.15639e-08
-6.91212e-09
-1.16154e-08
-6.86338e-09
-0.000215742
7.30455e-09
7.08769e-09
-1.62961e-08
-1.64314e-08
7.67885e-09
8.09283e-05
6.3892e-09
-8.09423e-05
7.89601e-09
8.09167e-05
6.3469e-09
-8.09309e-05
1.69345e-08
1.69375e-08
-0.00021576
-6.83738e-09
-6.90998e-09
-0.000225058
2.08852e-08
-2.44575e-08
-5.44985e-08
2.1325e-08
0.000184302
-0.000184326
-2.78609e-08
0.000255505
8.66986e-08
3.80808e-08
-0.000255563
9.46089e-09
-3.508e-08
-1.53724e-08
5.21305e-08
-0.0002251
-8.98029e-08
-3.03018e-08
-0.000224995
2.08816e-08
-2.44363e-08
-5.45972e-08
2.12989e-08
0.000184254
-0.000184278
-2.8001e-08
0.000255409
8.89223e-08
4.32313e-08
-0.000255475
9.47394e-09
-3.5171e-08
-1.78495e-08
5.2092e-08
-0.000225037
-8.98242e-08
-3.55835e-08
-0.000143796
2.93738e-10
-2.14816e-08
1.22689e-09
1.52099e-09
0.000171782
-3.94758e-11
-0.000171804
-2.02226e-08
0.000226257
7.55853e-10
5.41492e-08
-0.000226291
2.14575e-08
1.23189e-09
-4.0061e-11
-5.75986e-08
1.36695e-09
-0.000143816
-4.74558e-11
3.61962e-09
-5.78979e-08
-7.92785e-05
-1.88479e-08
-2.15037e-08
0.000265301
5.00876e-08
-0.000265335
-1.44369e-09
-3.64486e-08
-7.92986e-05
-5.28857e-08
-0.000143868
3.95845e-10
-1.95253e-08
1.41347e-09
0.000171817
-0.000171839
-1.82559e-08
0.000226343
5.67345e-08
-0.000226382
2.14745e-08
1.17604e-09
-5.76e-08
-0.000143886
-6.05056e-08
-0.000143866
-1.95328e-08
1.52493e-10
1.03799e-09
-1.82772e-08
0.00022634
7.52638e-10
5.67146e-08
-0.000226378
1.47991e-09
0.000171815
-9.26582e-12
-0.000171835
1.70427e-09
1.94672e-08
-7.45226e-11
-6.02239e-08
1.49377e-09
-0.000143884
3.59548e-09
-6.05056e-08
-1.86938e-11
-7.93242e-05
-1.67965e-08
-1.93999e-08
0.000265417
5.01425e-08
-0.000265453
-1.85856e-09
-3.41181e-08
-7.93421e-05
-5.06078e-08
-0.000143791
3.44426e-10
-2.15048e-08
1.17786e-09
1.44488e-09
0.000171779
-0.000171799
-2.02473e-08
0.000226246
7.29358e-10
5.41743e-08
-0.000226281
1.94374e-08
1.17142e-09
-5.76585e-08
1.29589e-09
-0.000143811
3.53701e-09
-5.79142e-08
-7.92762e-05
-1.88979e-08
-2.14496e-08
0.000265292
5.00704e-08
-0.000265326
-1.74707e-09
6.79597e-09
-3.63516e-08
-7.92963e-05
-5.04634e-08
-1.38459e-08
-0.000215736
7.23194e-09
7.15274e-09
-1.40453e-08
-1.62637e-08
7.71726e-09
8.09126e-05
6.39125e-09
-8.09267e-05
7.83804e-09
8.09307e-05
6.26693e-09
-8.09448e-05
1.48496e-08
1.6753e-08
-0.000215752
-6.79522e-09
-6.88107e-09
-2.4279e-08
-0.00022498
2.28474e-08
-5.44281e-08
2.31978e-08
0.000184245
-0.00018427
0.000255364
-2.80667e-08
4.32863e-08
8.90101e-08
-0.000255427
-3.74209e-08
8.82046e-09
-1.76327e-08
-3.54313e-08
-8.98038e-08
5.1886e-08
-0.000225022
-0.000225059
2.28274e-08
-2.44542e-08
-4.96941e-08
2.34808e-08
0.000184304
-0.000184332
-3.03356e-08
0.000255516
8.64717e-08
3.80632e-08
-0.00025557
8.91486e-09
-3.7415e-08
1.16005e-08
-1.53829e-08
4.72651e-08
-0.000225096
-8.72707e-08
-3.04066e-08
-6.87821e-09
-0.000143793
-2.14841e-08
3.14171e-10
9.76175e-10
-2.02707e-08
0.000226249
6.86295e-10
5.66649e-08
-0.000226286
1.42959e-09
0.000171776
-1.56271e-11
-0.000171798
1.4622e-09
2.14496e-08
-3.14658e-11
-6.00659e-08
1.47561e-09
-0.000143813
3.56352e-09
-6.0356e-08
-1.58077e-11
-7.92816e-05
-1.68032e-08
-1.93295e-08
0.000265301
5.00948e-08
-0.000265336
-1.81334e-09
-3.42371e-08
-7.92994e-05
-5.0594e-08
-0.000143865
-2.14754e-08
3.84138e-10
-2.02799e-08
0.000226337
5.66993e-08
-0.000226374
1.42115e-09
0.000171813
-0.000171833
1.12425e-09
1.93943e-08
-5.75997e-08
-0.000143885
-6.0356e-08
-6.29592e-09
-1.16223e-08
-0.00116127
-5.62397e-09
-1.95458e-09
-0.0011701
-3.49994e-10
-5.22741e-09
-0.00117054
-4.96638e-09
-5.14056e-09
-0.00118059
-4.71577e-10
-0.00117015
-3.05143e-09
-0.00118062
-1.10354e-09
-6.50593e-09
-0.00116088
-6.4695e-10
-0.00116973
-4.59209e-10
-1.04247e-08
-0.00117019
-1.02784e-08
-0.00117998
-3.69077e-10
-0.00117025
-0.00118003
-0.000247628
-1.41505e-07
-1.39354e-07
2.76177e-07
2.8408e-07
-1.39161e-07
0.000266402
-0.000266755
-1.36864e-07
0.000266835
-0.000267193
-0.0002478
-0.000272046
2.46336e-07
-5.91724e-10
1.6848e-09
2.39777e-07
0.000255363
-1.27196e-09
-0.000255547
1.08125e-09
0.000272401
4.72562e-09
-0.000273071
1.76403e-09
-2.31761e-07
-1.5167e-10
-5.19969e-09
-0.000272873
4.8881e-09
-2.16554e-09
8.47284e-09
-0.000270445
2.22253e-07
2.20204e-07
0.000255679
-0.000255845
0.000266059
1.38687e-08
-0.000266187
-1.2837e-07
-1.0995e-08
-0.000271195
-0.000272097
2.46418e-07
9.40168e-10
2.39835e-07
0.000255429
-0.000255611
-1.99984e-10
0.00027243
-0.000273089
1.24114e-09
-2.31759e-07
-0.000272925
-0.000272092
2.48838e-07
-3.04072e-09
1.77584e-08
2.42444e-07
0.000255424
-3.88979e-09
-0.000255606
-1.1823e-09
0.000272412
7.02506e-09
-0.000273076
2.20164e-09
-2.29184e-07
-4.62842e-10
-1.84151e-08
-0.000272906
7.17132e-09
-4.71633e-09
8.51999e-09
-0.000270506
2.24987e-07
2.22479e-07
0.000255741
-0.000255909
0.00026609
1.63591e-08
-0.000266221
-1.28476e-07
-1.09356e-08
-0.000271267
-0.000272026
1.26211e-09
2.46269e-07
-9.71081e-10
-1.14529e-10