/*--------------------------------*- C++ -*----------------------------------*\
| =========                 |                                                 |
| \\      /  F ield         | OpenFOAM: The Open Source CFD Toolbox           |
|  \\    /   O peration     | Version:  v1912                                 |
|   \\  /    A nd           | Website:  www.openfoam.com                      |
|    \\/     M anipulation  |                                                 |
\*---------------------------------------------------------------------------*/
FoamFile
{
    version     2.0;
    format      ascii;
    class       volVectorField;
    location    "120";
    object      U;
}
// * * * * * * * * * * * * * * * * * * * * * * * * * * * * * * * * * * * * * //

dimensions      [0 1 -1 0 0 0 0];


internalField   nonuniform List<vector> 
57566
(
(-3.8608e-06 2.8979e-06 0.0716115)
(-9.38681e-08 1.97054e-05 0.101211)
(6.22128e-06 -6.70815e-06 0.108606)
(5.65649e-07 -8.55033e-06 0.109723)
(-5.57473e-06 1.3376e-05 0.0945634)
(7.5716e-05 7.57389e-05 0.106627)
(4.25899e-06 5.03289e-06 0.0884529)
(5.04278e-06 4.26775e-06 0.0884507)
(2.54904e-06 4.64469e-06 0.0715436)
(4.67576e-06 2.61571e-06 0.0715447)
(7.22949e-05 7.22875e-05 0.106428)
(5.649e-06 6.52429e-06 0.0883863)
(6.47123e-06 5.66547e-06 0.0883834)
(-1.87426e-07 9.91248e-06 0.0928572)
(7.99611e-09 9.79046e-06 0.0826755)
(1.99664e-07 9.92453e-06 0.0928574)
(-1.24961e-08 9.85818e-06 0.0826767)
(-6.46803e-08 2.20107e-05 0.101103)
(5.74961e-06 5.6721e-06 0.108604)
(4.29184e-06 1.82151e-05 0.0944579)
(3.58996e-07 7.21042e-06 0.109724)
(5.781e-08 2.20385e-05 0.101103)
(-5.72554e-06 5.67503e-06 0.108603)
(-4.32399e-06 1.82462e-05 0.0944574)
(-3.56873e-07 7.21058e-06 0.109724)
(-2.63046e-06 4.713e-06 0.0715458)
(-7.23065e-05 7.22449e-05 0.106428)
(-5.70465e-06 6.52832e-06 0.0883846)
(-6.44785e-06 5.60944e-06 0.0883852)
(-4.61807e-06 2.54958e-06 0.0715429)
(-1.00923e-05 2.13165e-07 0.0929208)
(-7.98341e-06 2.52682e-06 0.0827456)
(-1.97455e-05 1.04527e-07 0.101211)
(6.76237e-06 -6.34501e-06 0.108604)
(8.53327e-06 -6.31417e-07 0.109724)
(-1.3309e-05 5.51925e-06 0.0945634)
(9.98731e-06 -2.04276e-07 0.0928573)
(9.81224e-06 3.43874e-08 0.0826766)
(2.20022e-05 -2.64352e-08 0.101102)
(5.5807e-06 5.58918e-06 0.108604)
(1.81551e-05 4.33736e-06 0.0944572)
(7.20099e-06 2.94935e-07 0.109724)
(1.00352e-05 2.13101e-07 0.0928573)
(9.80936e-06 -8.95563e-09 0.0826747)
(2.20595e-05 8.75018e-08 0.101102)
(5.62595e-06 -5.68969e-06 0.108603)
(7.17562e-06 -3.67337e-07 0.109724)
(1.82688e-05 -4.36402e-06 0.0944562)
(1.97282e-05 1.37357e-07 0.101211)
(-6.77823e-06 -6.32088e-06 0.108605)
(-8.53934e-06 -6.34835e-07 0.109724)
(1.33294e-05 5.57873e-06 0.0945632)
(1.00679e-05 2.16064e-07 0.0929216)
(8.03393e-06 2.55093e-06 0.082745)
(-2.20251e-05 -3.5124e-08 0.101103)
(-5.58254e-06 5.60734e-06 0.108605)
(-1.81401e-05 4.30166e-06 0.094458)
(-7.23874e-06 3.15858e-07 0.109724)
(-9.94163e-06 -2.14707e-07 0.0928569)
(-9.77496e-06 2.09251e-08 0.0826755)
(-2.20517e-05 9.71176e-08 0.101103)
(-5.63885e-06 -5.67396e-06 0.108604)
(-7.19917e-06 -3.73216e-07 0.109724)
(-1.82904e-05 -4.35751e-06 0.094458)
(-9.99491e-06 1.87895e-07 0.0928567)
(-9.87337e-06 -2.18309e-08 0.0826766)
(-7.57424e-05 7.57508e-05 0.106627)
(-4.20426e-06 5.01622e-06 0.088452)
(-5.04853e-06 4.27965e-06 0.0884527)
(-2.93911e-06 3.95873e-06 0.0716103)
(4.64005e-06 -2.54708e-06 0.0715421)
(7.224e-05 -7.2339e-05 0.106428)
(6.54257e-06 -5.67059e-06 0.088382)
(5.69555e-06 -6.55259e-06 0.088386)
(2.6206e-06 -4.71455e-06 0.0715457)
(1.09636e-07 1.9697e-05 0.101212)
(-6.23154e-06 -6.7032e-06 0.108605)
(-5.99983e-07 -8.54464e-06 0.109723)
(5.56896e-06 1.33793e-05 0.094563)
(-2.42351e-07 1.00806e-05 0.0929208)
(-2.53108e-06 8.04865e-06 0.0827451)
(2.32269e-07 1.00661e-05 0.0929212)
(2.54072e-06 8.04552e-06 0.082745)
(-4.6144e-08 -2.20922e-05 0.101102)
(5.57163e-06 -5.57342e-06 0.108604)
(3.05889e-07 -7.21479e-06 0.109724)
(4.36214e-06 -1.826e-05 0.0944587)
(6.66573e-08 -2.20933e-05 0.101101)
(-5.59034e-06 -5.55974e-06 0.108604)
(-3.43852e-07 -7.19789e-06 0.109724)
(-4.3572e-06 -1.82695e-05 0.0944571)
(-2.1075e-07 -1.00444e-05 0.0928572)
(4.81708e-08 -9.85844e-06 0.0826768)
(1.98975e-07 -1.0054e-05 0.0928569)
(-2.71292e-08 -9.86185e-06 0.0826766)
(3.95619e-06 2.94237e-06 0.0716104)
(2.94567e-06 3.95935e-06 0.0716097)
(-7.23018e-05 -7.23258e-05 0.106428)
(-6.57044e-06 -5.7089e-06 0.0883856)
(-5.69148e-06 -6.56278e-06 0.0883842)
(-4.72705e-06 -2.61373e-06 0.0715455)
(-2.60444e-06 -4.71886e-06 0.0715452)
(4.65914e-06 -2.55729e-06 0.0715431)
(-4.20207e-06 -4.22412e-06 0.0843822)
(2.05243e-06 2.7596e-06 0.0686932)
(2.7792e-06 2.04639e-06 0.0686872)
(-2.55124e-06 -2.59426e-06 0.0686394)
(-2.58133e-06 -2.56426e-06 0.0686336)
(3.7052e-06 3.68607e-06 0.0844331)
(-1.24944e-05 -6.51821e-06 0.0929599)
(4.23502e-06 2.81181e-06 0.0821635)
(-6.67587e-06 -5.74924e-06 0.0883866)
(1.73895e-05 8.76426e-06 0.0981906)
(-2.05738e-05 -1.2891e-05 0.0981056)
(-5.45504e-06 -2.70789e-06 0.0821079)
(1.19017e-05 5.06181e-06 0.0930273)
(-6.50606e-06 -1.25122e-05 0.0929523)
(2.84962e-06 4.25954e-06 0.0821581)
(-5.72787e-06 -6.66533e-06 0.0883852)
(8.82534e-06 1.74022e-05 0.0981873)
(-1.28471e-05 -2.05273e-05 0.0981019)
(-2.70945e-06 -5.48782e-06 0.0821038)
(5.11454e-06 1.18968e-05 0.0930196)
(-2.89237e-06 -3.8925e-06 0.0716114)
(-3.97536e-06 -2.94251e-06 0.0716099)
(-3.75172e-06 -3.77095e-06 0.0844331)
(2.60343e-06 2.54362e-06 0.0686398)
(2.52583e-06 2.51576e-06 0.0686315)
(4.13715e-06 4.09376e-06 0.0843811)
(-2.76655e-06 -2.07466e-06 0.068693)
(-2.07221e-06 -2.76443e-06 0.0686879)
(-5.18021e-06 -1.21434e-05 0.0930234)
(2.73606e-06 5.38359e-06 0.0821086)
(1.26814e-05 2.01735e-05 0.0981069)
(-5.02431e-06 -4.28727e-06 0.0884528)
(6.45879e-06 1.23516e-05 0.0929619)
(-2.83533e-06 -4.31088e-06 0.0821622)
(-8.93902e-06 -1.76981e-05 0.0981871)
(-1.20458e-05 -5.2314e-06 0.0930227)
(5.33342e-06 2.61663e-06 0.0821011)
(2.01161e-05 1.2566e-05 0.0980975)
(-4.42542e-06 -5.10805e-06 0.0884512)
(1.22928e-05 6.27813e-06 0.0929478)
(-4.29581e-06 -2.83129e-06 0.0821592)
(-1.77992e-05 -9.09199e-06 0.0981896)
(3.27826e-07 -4.93358e-06 0.0771773)
(-3.70901e-07 5.17578e-06 0.0789794)
(-4.70998e-07 9.68573e-06 0.091071)
(-1.93649e-07 -1.02289e-05 0.0929204)
(-1.47845e-06 5.34562e-06 0.0771243)
(-2.48111e-08 -4.66727e-06 0.0790253)
(-7.64013e-07 -1.01317e-05 0.0911401)
(-1.43366e-07 -4.11177e-06 0.068505)
(-9.56504e-07 8.26462e-06 0.086509)
(-2.50346e-06 -8.05861e-06 0.0827451)
(-2.15955e-06 4.69993e-06 0.0684322)
(-1.96562e-06 -7.84473e-06 0.0865837)
(-2.83962e-07 -4.96801e-06 0.0771771)
(4.04542e-07 5.19134e-06 0.0789797)
(4.72175e-07 9.72411e-06 0.0910717)
(2.39988e-07 -1.02351e-05 0.0929204)
(1.51116e-06 5.39385e-06 0.0771263)
(6.55788e-08 -4.65718e-06 0.0790252)
(7.9035e-07 -1.01588e-05 0.0911395)
(1.72769e-07 -4.15141e-06 0.0685018)
(9.66716e-07 8.31272e-06 0.0865093)
(2.5329e-06 -8.10272e-06 0.0827439)
(2.15133e-06 4.76025e-06 0.0684326)
(2.00121e-06 -7.87756e-06 0.086582)
(2.95314e-06 -3.98156e-06 0.0716096)
(3.75673e-06 -3.79554e-06 0.0844327)
(-2.59312e-06 2.52183e-06 0.0686334)
(-2.54525e-06 2.54424e-06 0.0686386)
(-4.15259e-06 4.10366e-06 0.0843815)
(2.76476e-06 -2.07837e-06 0.0686875)
(2.06622e-06 -2.78261e-06 0.0686926)
(5.18406e-06 -1.20715e-05 0.0930192)
(-2.69965e-06 5.35686e-06 0.0821027)
(-1.26726e-05 2.01799e-05 0.0981004)
(5.08076e-06 -4.39684e-06 0.0884506)
(8.98029e-06 -1.775e-05 0.0981864)
(-6.40622e-06 1.22804e-05 0.0929513)
(2.82258e-06 -4.31891e-06 0.0821584)
(1.20774e-05 -5.24033e-06 0.0930272)
(-5.34507e-06 2.65254e-06 0.0821071)
(-2.01456e-05 1.25847e-05 0.0981044)
(4.33501e-06 -5.03594e-06 0.0884534)
(-1.23271e-05 6.34685e-06 0.092959)
(4.30019e-06 -2.81936e-06 0.0821631)
(1.77465e-05 -9.04939e-06 0.0981909)
(3.88127e-06 -2.88782e-06 0.071611)
(5.41233e-06 1.522e-06 0.0771251)
(1.0146e-05 2.09067e-07 0.0928589)
(-4.65717e-06 3.60241e-08 0.0790251)
(-9.97511e-06 7.74703e-07 0.091141)
(5.30639e-06 3.79886e-07 0.0789819)
(9.85113e-06 4.96703e-07 0.0910719)
(-4.84521e-06 -2.69455e-07 0.0771786)
(4.7056e-06 2.23161e-06 0.0684317)
(-7.73777e-06 1.96983e-06 0.0865846)
(9.85225e-06 1.75379e-08 0.0826757)
(8.36501e-06 9.8212e-07 0.0865092)
(-4.03698e-06 1.80082e-07 0.0685062)
(-4.97351e-06 3.24984e-07 0.077177)
(9.74634e-06 -4.61908e-07 0.0910714)
(5.24794e-06 -4.02918e-07 0.078981)
(-1.02342e-05 -2.12075e-07 0.0929196)
(5.40745e-06 -1.4784e-06 0.0771265)
(-1.01349e-05 -7.57629e-07 0.0911395)
(-4.72832e-06 -5.28148e-08 0.0790241)
(-4.16072e-06 -1.30905e-07 0.0685023)
(8.29794e-06 -9.27479e-07 0.0865094)
(-8.10565e-06 -2.49911e-06 0.0827447)
(4.75131e-06 -2.10875e-06 0.0684329)
(-7.88551e-06 -1.95437e-06 0.0865823)
(-4.91637e-06 -2.90067e-07 0.0771775)
(5.24777e-06 3.76562e-07 0.0789806)
(9.75359e-06 5.06237e-07 0.0910704)
(-1.02084e-05 2.2618e-07 0.0929194)
(5.33889e-06 1.5113e-06 0.0771239)
(-4.71579e-06 5.43982e-08 0.0790239)
(-1.0082e-05 7.73663e-07 0.0911398)
(-4.08026e-06 1.36174e-07 0.0685054)
(8.31707e-06 9.80831e-07 0.086508)
(-8.04421e-06 2.50627e-06 0.0827448)
(4.65621e-06 2.19114e-06 0.0684308)
(-7.79513e-06 1.96656e-06 0.0865836)
(-5.47302e-06 1.50764e-06 0.0771266)
(-1.01025e-05 1.98297e-07 0.0928584)
(4.61181e-06 1.68647e-08 0.0790262)
(1.00061e-05 7.98517e-07 0.0911409)
(-5.24561e-06 3.69133e-07 0.0789808)
(-9.88112e-06 4.78204e-07 0.0910723)
(4.89912e-06 -2.93208e-07 0.0771776)
(-4.79564e-06 2.1743e-06 0.0684349)
(7.78758e-06 1.99907e-06 0.0865843)
(-9.92143e-06 3.5776e-09 0.0826777)
(-8.39796e-06 9.54936e-07 0.0865106)
(4.1296e-06 1.89132e-07 0.0685047)
(4.96653e-06 3.07861e-07 0.0771773)
(-9.72903e-06 -4.60313e-07 0.0910711)
(-5.19362e-06 -4.1443e-07 0.0789796)
(1.0206e-05 -2.31692e-07 0.0929204)
(-5.39747e-06 -1.48896e-06 0.0771261)
(1.01365e-05 -7.70796e-07 0.0911401)
(4.66116e-06 -6.18966e-08 0.0790252)
(4.15757e-06 -1.48469e-07 0.0685025)
(-8.29034e-06 -9.29762e-07 0.0865088)
(8.05999e-06 -2.49011e-06 0.0827452)
(-4.75372e-06 -2.11709e-06 0.0684324)
(7.87275e-06 -1.96066e-06 0.0865832)
(4.9674e-06 -3.13449e-07 0.0771765)
(-5.18732e-06 3.70358e-07 0.0789794)
(-9.77973e-06 4.81265e-07 0.0910709)
(1.01803e-05 2.29483e-07 0.0929202)
(-5.39944e-06 1.48766e-06 0.0771254)
(4.66572e-06 4.5353e-08 0.079025)
(1.0113e-05 7.90246e-07 0.0911397)
(4.16947e-06 1.42749e-07 0.0685039)
(-8.34758e-06 9.46321e-07 0.0865094)
(8.09888e-06 2.5318e-06 0.0827442)
(-4.74653e-06 2.12324e-06 0.068434)
(7.84652e-06 1.98629e-06 0.0865833)
(4.20448e-06 -4.22851e-06 0.0843819)
(-2.04532e-06 2.77403e-06 0.068687)
(-2.76746e-06 2.04987e-06 0.068693)
(2.55563e-06 -2.58723e-06 0.0686329)
(2.57957e-06 -2.56128e-06 0.0686391)
(-3.69687e-06 3.7e-06 0.084433)
(1.24757e-05 -6.54371e-06 0.0929515)
(-4.22915e-06 2.82672e-06 0.0821586)
(6.64522e-06 -5.71532e-06 0.088383)
(-1.74036e-05 8.77762e-06 0.0981878)
(5.45873e-06 -2.7096e-06 0.0821022)
(2.05294e-05 -1.28884e-05 0.0981009)
(-1.18934e-05 5.07002e-06 0.0930198)
(6.47672e-06 -1.25227e-05 0.0929596)
(-2.82476e-06 4.23249e-06 0.0821635)
(5.72783e-06 -6.66314e-06 0.0883871)
(-8.83594e-06 1.74132e-05 0.0981909)
(1.2835e-05 -2.05462e-05 0.0981057)
(2.68155e-06 -5.46347e-06 0.082108)
(-5.09039e-06 1.189e-05 0.0930272)
(2.63217e-06 -4.73828e-06 0.0715467)
(-3.88098e-06 2.90338e-06 0.0716107)
(-3.75424e-06 3.76981e-06 0.0844322)
(2.53493e-06 -2.57087e-06 0.0686321)
(2.57083e-06 -2.53317e-06 0.0686383)
(4.14358e-06 -4.15499e-06 0.0843809)
(-2.06136e-06 2.78648e-06 0.0686864)
(-2.77519e-06 2.068e-06 0.0686924)
(-1.20386e-05 5.17685e-06 0.0930187)
(5.37358e-06 -2.69647e-06 0.0821011)
(2.02011e-05 -1.2684e-05 0.0980994)
(-4.31874e-06 5.0697e-06 0.0884511)
(-1.77169e-05 8.98697e-06 0.0981866)
(1.23387e-05 -6.45292e-06 0.0929502)
(-4.30723e-06 2.83741e-06 0.0821577)
(-5.19849e-06 1.20482e-05 0.0930261)
(2.67742e-06 -5.37197e-06 0.0821069)
(1.26334e-05 -2.02086e-05 0.0981042)
(-5.09686e-06 4.39653e-06 0.0884519)
(6.38868e-06 -1.23743e-05 0.0929584)
(-2.83209e-06 4.31493e-06 0.0821626)
(-9.04014e-06 1.77302e-05 0.0981896)
(-2.95437e-06 3.98498e-06 0.0716095)
(-1.51749e-06 -5.48822e-06 0.0771269)
(-2.13862e-07 -1.01687e-05 0.0928588)
(-7.8363e-07 9.99284e-06 0.0911409)
(-7.21129e-08 4.65048e-06 0.0790251)
(-4.76393e-07 -9.90446e-06 0.0910724)
(-4.00429e-07 -5.32177e-06 0.0789822)
(2.68824e-07 4.89896e-06 0.0771774)
(-2.16641e-06 -4.79681e-06 0.0684353)
(-1.98291e-06 7.79079e-06 0.0865845)
(9.61355e-09 -9.91355e-06 0.0826778)
(-9.39677e-07 -8.40143e-06 0.0865107)
(-1.92416e-07 4.12252e-06 0.0685051)
(1.50489e-06 -5.48618e-06 0.0771276)
(2.15931e-07 -1.01765e-05 0.0928585)
(7.74288e-07 9.98015e-06 0.0911409)
(6.35993e-08 4.65599e-06 0.0790253)
(4.72057e-07 -9.91019e-06 0.0910724)
(3.94113e-07 -5.32421e-06 0.0789823)
(-2.87832e-07 4.90021e-06 0.0771782)
(2.14791e-06 -4.78857e-06 0.0684338)
(1.97342e-06 7.79078e-06 0.0865832)
(2.62207e-09 -9.91335e-06 0.0826777)
(9.40051e-07 -8.40357e-06 0.0865104)
(1.72253e-07 4.12793e-06 0.068503)
(3.03517e-07 4.96711e-06 0.0771764)
(-4.85354e-07 -9.79568e-06 0.0910709)
(-4.00653e-07 -5.2655e-06 0.0789808)
(-2.35499e-07 1.02133e-05 0.0929194)
(-1.50568e-06 -5.4161e-06 0.0771256)
(-7.81462e-07 1.01033e-05 0.0911396)
(-6.22281e-08 4.71578e-06 0.0790239)
(-1.43526e-07 4.16552e-06 0.0685043)
(-9.34931e-07 -8.33997e-06 0.0865096)
(-2.50537e-06 8.11862e-06 0.0827443)
(-2.12781e-06 -4.75739e-06 0.0684344)
(-1.97192e-06 7.85858e-06 0.0865836)
(-3.22931e-07 4.97207e-06 0.0771771)
(4.61778e-07 -9.80592e-06 0.0910709)
(3.88499e-07 -5.26584e-06 0.0789809)
(2.13856e-07 1.01964e-05 0.0929198)
(1.47816e-06 -5.41187e-06 0.0771264)
(7.63493e-07 1.0095e-05 0.0911396)
(5.10086e-08 4.7197e-06 0.0790241)
(1.25717e-07 4.16878e-06 0.0685023)
(9.27565e-07 -8.34668e-06 0.0865092)
(2.50872e-06 8.11492e-06 0.0827441)
(2.1046e-06 -4.74443e-06 0.0684329)
(1.95907e-06 7.8601e-06 0.0865822)
(-4.74437e-06 -2.62961e-06 0.0715465)
(-2.61945e-06 -4.74203e-06 0.0715461)
(3.76518e-06 3.7498e-06 0.0844323)
(-2.52803e-06 -2.58103e-06 0.0686386)
(-2.57225e-06 -2.53834e-06 0.0686328)
(-4.13855e-06 -4.15436e-06 0.0843813)
(2.07074e-06 2.76916e-06 0.0686925)
(2.78791e-06 2.06384e-06 0.0686865)
(1.20507e-05 5.16809e-06 0.0930263)
(-5.3718e-06 -2.69894e-06 0.0821069)
(-2.02503e-05 -1.26975e-05 0.0981041)
(4.36696e-06 5.08209e-06 0.0884521)
(-1.23521e-05 -6.42601e-06 0.0929587)
(1.76998e-05 8.9643e-06 0.0981893)
(4.30942e-06 2.82063e-06 0.0821626)
(5.222e-06 1.20517e-05 0.0930185)
(-2.70412e-06 -5.3995e-06 0.0821027)
(-1.26578e-05 -2.02016e-05 0.0981003)
(5.08867e-06 4.37988e-06 0.0884499)
(-6.41435e-06 -1.23643e-05 0.092951)
(9.02288e-06 1.77145e-05 0.098186)
(2.85811e-06 4.33826e-06 0.0821572)
(3.97862e-06 2.95301e-06 0.0716096)
(2.95422e-06 3.9855e-06 0.0716089)
(2.14186e-06 -2.1633e-06 0.110314)
(4.28259e-06 -2.77267e-06 0.110749)
(2.74788e-06 -4.30125e-06 0.110749)
(2.79898e-06 -2.82548e-06 0.111015)
(-2.16307e-06 -2.16323e-06 0.110314)
(-4.29323e-06 -2.76519e-06 0.110749)
(-2.75719e-06 -4.30458e-06 0.110749)
(-2.81664e-06 -2.82433e-06 0.111015)
(1.25702e-06 1.28455e-06 0.110317)
(2.46735e-06 3.32929e-06 0.110753)
(3.32761e-06 2.45804e-06 0.110754)
(2.48129e-06 2.46325e-06 0.111022)
(-1.28408e-06 1.27066e-06 0.110317)
(-2.51483e-06 3.33449e-06 0.110753)
(-3.34503e-06 2.48942e-06 0.110754)
(-2.48825e-06 2.46788e-06 0.111022)
(1.26506e-06 -1.27283e-06 0.110317)
(3.33083e-06 -2.49549e-06 0.110753)
(2.47939e-06 -3.34591e-06 0.110753)
(2.47574e-06 -2.49195e-06 0.111022)
(-1.29088e-06 -1.28459e-06 0.110317)
(-3.3414e-06 -2.50203e-06 0.110753)
(-2.49831e-06 -3.34743e-06 0.110753)
(-2.48661e-06 -2.49289e-06 0.111022)
(8.11254e-07 -8.96022e-05 0.105338)
(-4.99895e-08 -2.25279e-05 0.101105)
(7.35075e-07 8.58512e-05 0.106228)
(-6.96782e-07 2.00184e-05 0.0999707)
(-1.31574e-07 -9.01294e-05 0.106072)
(1.1024e-07 -2.19174e-05 0.0998484)
(1.14476e-06 8.73674e-05 0.105535)
(2.94297e-06 -8.9777e-05 0.103799)
(-2.90851e-06 1.875e-05 0.0976284)
(4.37372e-06 -1.85214e-05 0.0944599)
(-3.41778e-06 7.31014e-05 0.10183)
(7.39374e-06 -8.13363e-05 0.1017)
(7.88203e-07 -2.07606e-05 0.0975)
(-4.92593e-07 8.64247e-05 0.104001)
(-1.8232e-05 -1.82601e-05 0.0994412)
(-7.29954e-05 -7.30225e-05 0.106431)
(1.9639e-05 6.86312e-05 0.103763)
(6.86074e-05 1.96395e-05 0.10376)
(-2.24754e-05 -7.11269e-05 0.103625)
(-7.10207e-05 -2.24509e-05 0.103622)
(1.79016e-05 1.78675e-05 0.0995498)
(-1.80798e-05 -1.82675e-05 0.0995487)
(-7.62783e-05 -7.63242e-05 0.106625)
(7.06192e-05 2.19319e-05 0.103624)
(2.1917e-05 7.04978e-05 0.103617)
(1.79489e-05 1.79073e-05 0.0994393)
(-6.89964e-05 -2.01651e-05 0.103759)
(-2.00744e-05 -6.89856e-05 0.103761)
(9.77471e-07 -8.82859e-05 0.105532)
(4.15345e-08 2.1424e-05 0.0998473)
(-2.17429e-07 8.89937e-05 0.106069)
(-1.12393e-07 -2.01826e-05 0.101209)
(6.43937e-07 8.85527e-05 0.105335)
(-7.57835e-07 -2.04455e-05 0.0999688)
(6.54614e-07 -8.68038e-05 0.106226)
(-6.91614e-07 -8.70845e-05 0.103998)
(6.84277e-07 2.03859e-05 0.0974986)
(7.1894e-06 8.07393e-05 0.101699)
(-5.57947e-06 -1.3519e-05 0.0945628)
(-3.56867e-06 -7.35737e-05 0.101828)
(2.75112e-06 8.90327e-05 0.103796)
(-2.96583e-06 -1.90469e-05 0.0976266)
(-1.03081e-06 -8.82988e-05 0.105532)
(-5.70356e-08 2.14443e-05 0.0998466)
(2.10253e-07 8.90239e-05 0.106069)
(1.10267e-07 -2.01546e-05 0.101209)
(-6.74246e-07 8.85394e-05 0.105334)
(7.60266e-07 -2.04703e-05 0.0999677)
(-6.92999e-07 -8.67711e-05 0.106225)
(6.22483e-07 -8.70681e-05 0.103997)
(-6.95805e-07 2.03976e-05 0.0974972)
(-7.19e-06 8.07572e-05 0.101696)
(5.61418e-06 -1.36421e-05 0.0945609)
(-2.77366e-06 8.90466e-05 0.103795)
(2.98577e-06 -1.9105e-05 0.0976247)
(3.55357e-06 -7.35991e-05 0.101826)
(1.81668e-05 -1.81843e-05 0.0995491)
(7.63226e-05 -7.62934e-05 0.106625)
(-7.06044e-05 2.19185e-05 0.103619)
(-2.19552e-05 7.05567e-05 0.103622)
(6.89776e-05 -2.01109e-05 0.103759)
(-1.79667e-05 1.78871e-05 0.0994398)
(2.0129e-05 -6.90474e-05 0.103762)
(8.95379e-05 -8.27219e-07 0.105338)
(2.25073e-05 5.89285e-08 0.101105)
(-8.58513e-05 -7.47812e-07 0.106228)
(-2.00407e-05 6.91418e-07 0.0999699)
(9.01078e-05 1.34369e-07 0.106072)
(2.18937e-05 -1.01789e-07 0.0998488)
(-8.74341e-05 -1.1734e-06 0.105534)
(8.98218e-05 -2.97662e-06 0.103798)
(-1.87371e-05 2.88615e-06 0.0976274)
(1.85131e-05 -4.37653e-06 0.0944575)
(-7.30738e-05 3.33159e-06 0.101829)
(2.07614e-05 -7.85205e-07 0.0974994)
(-8.63922e-05 4.23367e-07 0.104)
(8.13677e-05 -7.40695e-06 0.101698)
(-8.82219e-05 1.04464e-06 0.105532)
(2.14419e-05 8.53728e-08 0.0998462)
(8.9037e-05 -1.58847e-07 0.106069)
(-2.01642e-05 -7.34641e-08 0.101209)
(8.86234e-05 6.5667e-07 0.105334)
(-2.04574e-05 -7.14107e-07 0.099968)
(-8.6781e-05 7.20834e-07 0.106225)
(-8.71532e-05 -5.74421e-07 0.103998)
(2.0366e-05 7.34007e-07 0.0974975)
(8.06884e-05 7.19309e-06 0.101696)
(-1.3751e-05 -5.59728e-06 0.0945623)
(-7.36588e-05 -3.54214e-06 0.101828)
(8.89553e-05 2.75471e-06 0.103795)
(-1.91473e-05 -2.94485e-06 0.0976255)
(-8.82526e-05 -1.02433e-06 0.105531)
(8.90523e-05 2.20806e-07 0.106069)
(2.15204e-05 -6.84549e-08 0.0998466)
(-2.01318e-05 1.0949e-07 0.101209)
(8.85773e-05 -6.61246e-07 0.105335)
(-8.67629e-05 -6.84175e-07 0.106225)
(-2.0399e-05 7.24317e-07 0.099968)
(-8.70393e-05 5.97744e-07 0.103997)
(2.04636e-05 -7.38444e-07 0.0974976)
(8.0732e-05 -7.20243e-06 0.101696)
(-1.35683e-05 5.53907e-06 0.0945623)
(8.90622e-05 -2.77746e-06 0.103795)
(-1.90263e-05 2.92766e-06 0.0976259)
(-7.36016e-05 3.5127e-06 0.101827)
(-8.95341e-05 -8.40012e-07 0.105338)
(-2.25041e-05 7.17773e-08 0.101106)
(8.58454e-05 -7.02873e-07 0.106228)
(2.00211e-05 7.34446e-07 0.0999704)
(-9.00888e-05 1.49128e-07 0.106073)
(-2.19129e-05 -9.27181e-08 0.099849)
(8.74268e-05 -1.15813e-06 0.105534)
(-8.98291e-05 -2.97403e-06 0.103799)
(1.87584e-05 2.93433e-06 0.0976279)
(-1.85492e-05 -4.36817e-06 0.0944592)
(7.30489e-05 3.39895e-06 0.10183)
(-8.13954e-05 -7.39279e-06 0.1017)
(-2.07506e-05 -7.72989e-07 0.0974997)
(8.63854e-05 4.73054e-07 0.104)
(8.82005e-05 1.0044e-06 0.105533)
(-2.14372e-05 5.16879e-08 0.0998463)
(-8.90372e-05 -1.69224e-07 0.106069)
(2.01575e-05 -8.91941e-08 0.10121)
(-8.86287e-05 6.31829e-07 0.105335)
(2.04313e-05 -7.42367e-07 0.0999691)
(8.67622e-05 7.17694e-07 0.106226)
(8.70802e-05 -6.45862e-07 0.103999)
(-2.03681e-05 6.99818e-07 0.0974974)
(-8.06875e-05 7.19351e-06 0.101699)
(1.36367e-05 -5.57001e-06 0.0945639)
(-8.90118e-05 2.744e-06 0.103796)
(7.36217e-05 -3.57392e-06 0.10183)
(1.90911e-05 -2.95822e-06 0.0976272)
(8.82417e-05 -1.00481e-06 0.105532)
(-8.90411e-05 2.39964e-07 0.106069)
(-2.154e-05 -5.47031e-08 0.0998467)
(2.0113e-05 1.36374e-07 0.101209)
(-8.85789e-05 -6.71793e-07 0.105335)
(8.67533e-05 -6.49915e-07 0.106225)
(2.03817e-05 7.66663e-07 0.0999685)
(8.70357e-05 6.45841e-07 0.103997)
(-2.04527e-05 -7.23698e-07 0.0974979)
(-8.07547e-05 -7.19781e-06 0.101698)
(1.35947e-05 5.58991e-06 0.0945621)
(-8.90684e-05 -2.77848e-06 0.103796)
(1.90527e-05 2.97454e-06 0.0976264)
(7.35785e-05 3.56277e-06 0.101828)
(1.82048e-05 -1.83162e-05 0.099441)
(7.2943e-05 -7.30473e-05 0.106431)
(-1.96217e-05 6.85664e-05 0.10376)
(-6.86689e-05 1.96486e-05 0.103763)
(7.10399e-05 -2.24978e-05 0.103625)
(2.24229e-05 -7.11298e-05 0.103621)
(-1.78712e-05 1.78696e-05 0.0995496)
(-1.81257e-05 1.8128e-05 0.0995481)
(-7.63123e-05 7.63229e-05 0.106624)
(2.1907e-05 -7.06309e-05 0.103619)
(7.05467e-05 -2.19729e-05 0.103622)
(-2.0077e-05 6.89513e-05 0.103758)
(1.79334e-05 -1.80386e-05 0.0994393)
(-6.9048e-05 2.01069e-05 0.103761)
(-7.94319e-07 -8.96114e-05 0.105337)
(6.55257e-08 -2.25265e-05 0.101104)
(-7.39725e-07 8.5797e-05 0.106228)
(6.95463e-07 2.00047e-05 0.0999701)
(1.40732e-07 -9.01546e-05 0.106072)
(-1.11277e-07 -2.19266e-05 0.0998477)
(-1.1568e-06 8.73488e-05 0.105534)
(-2.92239e-06 -8.97629e-05 0.103798)
(2.90883e-06 1.88014e-05 0.0976271)
(-4.36552e-06 -1.85297e-05 0.0944584)
(3.39978e-06 7.30933e-05 0.101829)
(-7.37663e-06 -8.13467e-05 0.101698)
(-7.78832e-07 -2.07521e-05 0.0974988)
(4.6461e-07 8.64418e-05 0.104)
(9.95217e-07 8.81829e-05 0.105532)
(-1.91393e-07 -8.90696e-05 0.106069)
(8.01638e-08 -2.15414e-05 0.0998462)
(-9.1633e-08 2.01123e-05 0.101209)
(6.50545e-07 -8.8647e-05 0.105334)
(6.81655e-07 8.67538e-05 0.106225)
(-7.27637e-07 2.03804e-05 0.0999688)
(-6.70957e-07 8.7074e-05 0.103998)
(7.4166e-07 -2.0477e-05 0.0974981)
(7.18351e-06 -8.06881e-05 0.101698)
(-5.59145e-06 1.36464e-05 0.0945624)
(2.73886e-06 -8.9017e-05 0.103796)
(-3.59608e-06 7.36395e-05 0.101828)
(-2.94937e-06 1.90424e-05 0.0976268)
(-1.01086e-06 8.81694e-05 0.105531)
(2.07829e-07 -8.90979e-05 0.106068)
(-8.14218e-08 -2.15463e-05 0.0998455)
(1.06466e-07 2.00994e-05 0.101209)
(-6.27618e-07 -8.86491e-05 0.105334)
(-6.80046e-07 8.67093e-05 0.106225)
(7.21699e-07 2.03738e-05 0.0999682)
(6.34319e-07 8.7093e-05 0.103998)
(-7.35333e-07 -2.04496e-05 0.097497)
(-7.19093e-06 -8.07057e-05 0.101696)
(5.58107e-06 1.3646e-05 0.094562)
(-2.73098e-06 -8.89965e-05 0.103795)
(2.93925e-06 1.90814e-05 0.0976256)
(3.56594e-06 7.36266e-05 0.101827)
(1.81543e-05 1.81222e-05 0.0995483)
(7.62767e-05 7.63027e-05 0.106624)
(-2.19601e-05 -7.06362e-05 0.103622)
(-7.05349e-05 -2.19367e-05 0.103619)
(-1.79563e-05 -1.79838e-05 0.0994394)
(2.00904e-05 6.90076e-05 0.103761)
(6.89793e-05 2.00896e-05 0.103758)
(2.52864e-06 4.64469e-06 0.0715461)
(4.57391e-06 2.54832e-06 0.0715446)
(7.05371e-05 7.05551e-05 0.106415)
(5.46741e-06 6.20811e-06 0.0883872)
(6.21354e-06 5.47389e-06 0.088384)
(-1.26512e-07 9.51306e-06 0.0928554)
(2.07587e-07 9.5933e-06 0.0826766)
(9.55383e-08 9.52114e-06 0.0928555)
(-9.46256e-09 2.08692e-05 0.101097)
(3.40137e-06 1.82198e-06 0.108595)
(4.33378e-06 1.71832e-05 0.0944579)
(-6.717e-07 2.36056e-06 0.109721)
(-8.77101e-09 2.08846e-05 0.101096)
(6.27938e-07 2.37846e-06 0.109721)
(9.54933e-06 -1.10815e-07 0.0928558)
(9.47559e-06 1.89289e-07 0.0826758)
(2.09105e-05 1.81613e-08 0.101096)
(1.67602e-06 3.22164e-06 0.108596)
(1.72777e-05 4.28781e-06 0.0944562)
(2.34261e-06 -6.32124e-07 0.109721)
(9.56202e-06 1.22562e-07 0.0928559)
(9.47613e-06 -2.23575e-07 0.0826746)
(2.09266e-05 1.23178e-08 0.101096)
(1.78267e-06 -3.35939e-06 0.108595)
(2.38786e-06 6.19673e-07 0.109721)
(1.72601e-05 -4.33324e-06 0.0944555)
(4.4989e-06 -2.53458e-06 0.0715418)
(7.04846e-05 -7.05341e-05 0.106415)
(6.17175e-06 -5.49051e-06 0.088382)
(5.47454e-06 -6.20591e-06 0.0883858)
(2.55097e-06 -4.59782e-06 0.0715454)
(-6.39316e-09 -2.08856e-05 0.101095)
(3.2575e-06 -1.71632e-06 0.108596)
(-6.15646e-07 -2.30843e-06 0.109721)
(4.31654e-06 -1.72401e-05 0.0944574)
(-6.69778e-09 -2.09021e-05 0.101096)
(6.32924e-07 -2.31596e-06 0.109721)
(-1.25466e-07 -9.52974e-06 0.0928544)
(2.15429e-07 -9.53152e-06 0.0826767)
(1.03334e-07 -9.5649e-06 0.0928554)
(-3.03244e-06 -4.03351e-06 0.07161)
(-4.09186e-06 -3.01154e-06 0.0716091)
(-3.88554e-06 -3.9786e-06 0.0844326)
(2.56188e-06 2.42387e-06 0.0686374)
(2.53317e-06 2.57338e-06 0.0686327)
(3.96917e-06 3.89625e-06 0.0843808)
(-2.7768e-06 -2.16567e-06 0.0686915)
(-2.07324e-06 -2.78917e-06 0.0686868)
(-5.54515e-06 -1.23912e-05 0.0930259)
(2.65042e-06 5.19557e-06 0.0821074)
(1.18428e-05 1.93191e-05 0.0981024)
(-5.28455e-06 -4.66924e-06 0.0884525)
(5.98419e-06 1.19671e-05 0.0929576)
(-2.89133e-06 -4.493e-06 0.0821621)
(-9.72327e-06 -1.84891e-05 0.098188)
(-1.23371e-05 -5.52147e-06 0.0930186)
(5.21182e-06 2.66555e-06 0.0821024)
(1.93712e-05 1.18974e-05 0.0980974)
(-4.69309e-06 -5.2892e-06 0.0884503)
(1.19862e-05 6.08221e-06 0.0929501)
(-4.49896e-06 -2.90075e-06 0.0821575)
(-1.84181e-05 -9.71012e-06 0.098184)
(4.73006e-07 -5.09263e-06 0.0771767)
(-3.10841e-07 4.9534e-06 0.0789771)
(-3.61729e-07 9.25497e-06 0.0910698)
(-1.46822e-07 -1.05797e-05 0.0929198)
(-1.32347e-06 5.10372e-06 0.0771222)
(3.05792e-08 -4.85142e-06 0.0790237)
(-6.55414e-07 -1.04953e-05 0.0911399)
(3.23739e-08 -4.16003e-06 0.0685056)
(-7.51331e-07 8.0063e-06 0.0865084)
(-2.36312e-06 -8.29959e-06 0.0827448)
(-2.00929e-06 4.55083e-06 0.0684308)
(-1.76279e-06 -8.06718e-06 0.086584)
(-5.40894e-07 -5.15338e-06 0.0771762)
(2.7677e-07 4.96112e-06 0.0789774)
(3.02736e-07 9.28418e-06 0.09107)
(1.29077e-07 -1.05844e-05 0.0929198)
(1.2584e-06 5.17554e-06 0.0771245)
(-6.73461e-08 -4.85752e-06 0.0790237)
(6.12158e-07 -1.05392e-05 0.0911395)
(-5.16233e-06 4.8665e-07 0.0771761)
(9.276e-06 -3.48793e-07 0.0910702)
(5.02249e-06 -2.99037e-07 0.078979)
(-1.06353e-05 -1.43184e-07 0.0929189)
(5.17658e-06 -1.30132e-06 0.077125)
(-1.0556e-05 -6.49802e-07 0.0911391)
(-4.91914e-06 3.47547e-08 0.0790227)
(-4.24127e-06 9.07383e-09 0.0685021)
(8.00006e-06 -7.43286e-07 0.0865083)
(-8.37369e-06 -2.34612e-06 0.0827453)
(4.65231e-06 -1.94733e-06 0.0684318)
(-8.15442e-06 -1.78343e-06 0.0865828)
(-5.10544e-06 -5.07203e-07 0.0771765)
(5.0152e-06 2.83591e-07 0.0789786)
(9.25395e-06 3.50727e-07 0.0910695)
(-1.0623e-05 1.30481e-07 0.0929187)
(5.10915e-06 1.28199e-06 0.0771224)
(-4.91266e-06 -4.6553e-08 0.0790226)
(-1.05141e-05 6.21289e-07 0.0911395)
(-4.16202e-06 -5.73157e-08 0.0685052)
(7.97263e-06 7.42559e-07 0.0865076)
(-8.32594e-06 2.30738e-06 0.0827452)
(4.54685e-06 1.97729e-06 0.0684302)
(-8.09716e-06 1.73516e-06 0.0865836)
(-4.00035e-06 2.91686e-06 0.0716108)
(-3.95833e-06 3.90443e-06 0.084432)
(2.4511e-06 -2.5861e-06 0.0686316)
(2.53872e-06 -2.47925e-06 0.0686378)
(3.90582e-06 -3.98546e-06 0.0843803)
(-2.12889e-06 2.76248e-06 0.0686862)
(-2.79764e-06 2.11243e-06 0.0686922)
(-1.23711e-05 5.48652e-06 0.0930182)
(5.16047e-06 -2.67453e-06 0.0821005)
(1.92793e-05 -1.19249e-05 0.098097)
(-4.63923e-06 5.22164e-06 0.0884515)
(-1.84778e-05 9.65871e-06 0.0981848)
(1.19197e-05 -6.08199e-06 0.0929492)
(-4.47884e-06 2.8538e-06 0.0821575)
(-5.52056e-06 1.23513e-05 0.0930257)
(2.62754e-06 -5.15633e-06 0.0821064)
(1.1869e-05 -1.93511e-05 0.0981017)
(-5.28152e-06 4.69419e-06 0.0884522)
(6.00625e-06 -1.19776e-05 0.0929574)
(-2.87202e-06 4.48556e-06 0.0821625)
(-9.72283e-06 1.8439e-05 0.0981878)
(-3.01774e-06 4.07302e-06 0.0716097)
(5.16688e-07 5.10121e-06 0.0771766)
(-3.24663e-07 -9.26152e-06 0.0910689)
(-2.95242e-07 -4.96636e-06 0.0789771)
(-1.38015e-07 1.05708e-05 0.0929196)
(-1.28816e-06 -5.1183e-06 0.0771224)
(-6.37703e-07 1.04941e-05 0.0911399)
(3.93123e-08 4.85646e-06 0.0790236)
(3.94175e-08 4.24248e-06 0.068504)
(-7.03494e-07 -8.01328e-06 0.0865093)
(-2.3459e-06 8.384e-06 0.0827446)
(-1.92291e-06 -4.63189e-06 0.0684337)
(-1.76035e-06 8.14099e-06 0.0865829)
(-5.43043e-07 5.09107e-06 0.0771773)
(3.11472e-07 -9.2661e-06 0.0910689)
(2.85248e-07 -5.01454e-06 0.0789783)
(1.2682e-07 1.05982e-05 0.0929187)
(1.25538e-06 -5.1257e-06 0.0771227)
(5.82458e-07 1.04832e-05 0.09114)
(-5.14357e-08 4.89398e-06 0.0790228)
(-2.55646e-06 -2.61878e-06 0.110322)
(1.17038e-06 -1.06385e-06 0.110768)
(-1.02296e-06 1.19847e-06 0.110768)
(9.26488e-07 9.2383e-07 0.111046)
(-1.23735e-06 -1.04443e-06 0.110768)
(-9.14307e-07 9.17965e-07 0.111046)
(-2.57309e-06 2.50559e-06 0.110322)
(-1.05391e-06 -1.14719e-06 0.110768)
(1.1186e-06 1.06867e-06 0.110768)
(8.85539e-07 -9.41962e-07 0.111046)
(-1.19777e-06 1.0514e-06 0.110768)
(-9.00909e-07 -9.49669e-07 0.111046)
(-1.87259e-05 -1.86445e-05 0.0995454)
(-7.7571e-05 -7.75628e-05 0.106612)
(6.95209e-05 2.08958e-05 0.103615)
(2.07677e-05 6.93714e-05 0.103611)
(1.72415e-05 1.74096e-05 0.0994352)
(-6.97568e-05 -2.09835e-05 0.103754)
(-2.10429e-05 -6.9814e-05 0.103751)
(6.6837e-07 -9.0222e-05 0.105522)
(5.34019e-08 2.03378e-05 0.0998429)
(-2.72328e-07 8.62147e-05 0.106057)
(-5.48405e-08 -2.11487e-05 0.101205)
(3.04042e-07 8.60092e-05 0.105324)
(-7.51327e-07 -2.14343e-05 0.0999649)
(6.08654e-07 -8.89548e-05 0.106215)
(-9.64314e-07 -8.85467e-05 0.103989)
(7.42915e-07 1.96012e-05 0.0974961)
(6.69686e-06 7.90358e-05 0.101694)
(-5.61484e-06 -1.45427e-05 0.0945617)
(-4.0143e-06 -7.48638e-05 0.101824)
(2.43495e-06 8.70595e-05 0.103787)
(-2.94096e-06 -1.9754e-05 0.0976238)
(-6.97969e-07 -9.02405e-05 0.105522)
(-8.8791e-08 2.03651e-05 0.0998415)
(3.02137e-07 8.6226e-05 0.106056)
(3.98852e-08 -2.11393e-05 0.101205)
(-2.99626e-07 8.59929e-05 0.105323)
(7.1439e-07 -2.14312e-05 0.0999644)
(-6.02569e-07 -8.89345e-05 0.106215)
(-9.02049e-05 7.00174e-07 0.105522)
(2.03884e-05 8.8488e-08 0.0998413)
(8.61979e-05 -2.97042e-07 0.106056)