/*--------------------------------*- C++ -*----------------------------------*\
| =========                 |                                                 |
| \\      /  F ield         | OpenFOAM: The Open Source CFD Toolbox           |
|  \\    /   O peration     | Version:  v1912                                 |
|   \\  /    A nd           | Website:  www.openfoam.com                      |
|    \\/     M anipulation  |                                                 |
\*---------------------------------------------------------------------------*/
FoamFile
{
    version     2.0;
    format      ascii;
    class       volScalarField;
    location    "20";
    object      epsilon;
}
// * * * * * * * * * * * * * * * * * * * * * * * * * * * * * * * * * * * * * //

dimensions      [0 2 -3 0 0 0 0];


internalField   nonuniform List<scalar> 
57566
(
2.42491e-05
5.83847e-07
3.5511e-07
3.41039e-07
1.32447e-06
3.83021e-07
2.7562e-06
2.7568e-06
2.42493e-05
2.42523e-05
3.83251e-07
2.75645e-06
2.75679e-06
1.65557e-06
8.51737e-06
1.65558e-06
8.51835e-06
5.83987e-07
3.55135e-07
1.3252e-06
3.41057e-07
5.83991e-07
3.5514e-07
1.32527e-06
3.41056e-07
2.42509e-05
3.83239e-07
2.75666e-06
2.75634e-06
2.42487e-05
1.65473e-06
8.51812e-06
5.83874e-07
3.55142e-07
3.41052e-07
1.32466e-06
1.65532e-06
8.51906e-06
5.83998e-07
3.55122e-07
1.3252e-06
3.4106e-07
1.65515e-06
8.51811e-06
5.84031e-07
3.55142e-07
3.41051e-07
1.32536e-06
5.83866e-07
3.55132e-07
3.41049e-07
1.32447e-06
1.65484e-06
8.51807e-06
5.8398e-07
3.55103e-07
1.32507e-06
3.41043e-07
1.65558e-06
8.51801e-06
5.8402e-07
3.55132e-07
3.41048e-07
1.32515e-06
1.65532e-06
8.51806e-06
3.83048e-07
2.75678e-06
2.75603e-06
2.42492e-05
2.42482e-05
3.83297e-07
2.75753e-06
2.75666e-06
2.42479e-05
5.83866e-07
3.5512e-07
3.41049e-07
1.32454e-06
1.65473e-06
8.51821e-06
1.65471e-06
8.51863e-06
5.84002e-07
3.5511e-07
3.41039e-07
1.32511e-06
5.84027e-07
3.55119e-07
3.41048e-07
1.32524e-06
1.65514e-06
8.51821e-06
1.65514e-06
8.51866e-06
2.42494e-05
2.42503e-05
3.83273e-07
2.75681e-06
2.75741e-06
2.42481e-05
2.4249e-05
2.42523e-05
4.01837e-06
2.7614e-05
2.76173e-05
2.76173e-05
2.76206e-05
4.01855e-06
1.41551e-06
9.04583e-06
2.75654e-06
7.37237e-07
7.37364e-07
9.04704e-06
1.41488e-06
1.41609e-06
9.05047e-06
2.75713e-06
7.37364e-07
7.37489e-07
9.05166e-06
1.41549e-06
2.42463e-05
2.42496e-05
4.01861e-06
2.76166e-05
2.76209e-05
4.01853e-06
2.7614e-05
2.76174e-05
1.41477e-06
9.0462e-06
7.37385e-07
2.75593e-06
1.4153e-06
9.04553e-06
7.37238e-07
1.41551e-06
9.05209e-06
7.37521e-07
2.75665e-06
1.41621e-06
9.05062e-06
7.37386e-07
1.51266e-05
1.28986e-05
1.88885e-06
1.65492e-06
1.51284e-05
1.28981e-05
1.88823e-06
2.8947e-05
3.37505e-06
8.51692e-06
2.89514e-05
3.37492e-06
1.51263e-05
1.28985e-05
1.88863e-06
1.65491e-06
1.51284e-05
1.28979e-05
1.88806e-06
2.89468e-05
3.37535e-06
8.51788e-06
2.8952e-05
3.3753e-06
2.42483e-05
4.01856e-06
2.76198e-05
2.76172e-05
4.0184e-06
2.76172e-05
2.76145e-05
1.41558e-06
9.05099e-06
7.37553e-07
2.75655e-06
7.37426e-07
1.41622e-06
9.05007e-06
1.41464e-06
9.04681e-06
7.37344e-07
2.75602e-06
1.41524e-06
9.04582e-06
7.37216e-07
2.42458e-05
1.51286e-05
1.65542e-06
1.28981e-05
1.88827e-06
1.28992e-05
1.88902e-06
1.51266e-05
2.89498e-05
3.37502e-06
8.51932e-06
3.37544e-06
2.8945e-05
1.51266e-05
1.88861e-06
1.28995e-05
1.65471e-06
1.51288e-05
1.88804e-06
1.28985e-05
2.89463e-05
3.37516e-06
8.51868e-06
2.89515e-05
3.37513e-06
1.51255e-05
1.28981e-05
1.88886e-06
1.65482e-06
1.51266e-05
1.28976e-05
1.88849e-06
2.89353e-05
3.37618e-06
8.51769e-06
2.89425e-05
3.37582e-06
1.51287e-05
1.6556e-06
1.28971e-05
1.88806e-06
1.28983e-05
1.88874e-06
1.51269e-05
2.8951e-05
3.375e-06
8.51918e-06
3.37523e-06
2.89465e-05
1.5126e-05
1.8886e-06
1.28985e-05
1.65491e-06
1.51281e-05
1.88801e-06
1.28979e-05
2.89456e-05
3.37505e-06
8.51751e-06
2.89508e-05
3.37499e-06
1.51259e-05
1.28971e-05
1.88859e-06
1.65493e-06
1.51269e-05
1.28967e-05
1.88825e-06
2.89366e-05
3.37601e-06
8.51764e-06
2.89435e-05
3.37579e-06
4.01856e-06
2.76186e-05
2.76147e-05
2.7622e-05
2.76181e-05
4.01874e-06
1.41631e-06
9.05027e-06
2.75715e-06
7.37467e-07
9.05159e-06
7.37598e-07
1.41567e-06
1.41551e-06
9.04539e-06
2.75628e-06
7.37257e-07
7.37383e-07
9.04672e-06
1.41486e-06
2.42522e-05
2.4244e-05
4.02066e-06
2.76164e-05
2.76126e-05
4.02062e-06
2.76114e-05
2.76076e-05
1.41572e-06
9.05028e-06
7.37668e-07
2.75725e-06
7.37545e-07
1.41619e-06
9.04966e-06
1.41491e-06
9.0454e-06
7.3745e-07
2.75648e-06
1.41538e-06
9.04477e-06
7.37327e-07
2.42438e-05
1.51286e-05
1.65541e-06
1.88806e-06
1.28981e-05
1.88874e-06
1.28991e-05
1.51268e-05
2.89508e-05
3.37501e-06
8.51931e-06
3.37524e-06
2.89463e-05
1.51278e-05
1.65541e-06
1.88799e-06
1.28981e-05
1.88867e-06
1.28991e-05
1.5126e-05
2.89494e-05
3.37496e-06
8.51972e-06
3.37517e-06
2.89448e-05
1.51259e-05
1.88859e-06
1.28981e-05
1.65481e-06
1.51268e-05
1.88825e-06
1.28976e-05
2.89365e-05
3.37601e-06
8.51777e-06
2.89433e-05
3.37579e-06
1.51251e-05
1.88852e-06
1.28981e-05
1.6548e-06
1.5126e-05
1.88819e-06
1.28976e-05
2.8935e-05
3.37595e-06
8.51821e-06
2.89419e-05
3.37575e-06
2.42524e-05
2.42533e-05
4.02046e-06
2.76119e-05
2.76152e-05
4.02042e-06
2.7607e-05
2.76103e-05
1.41494e-06
9.04583e-06
7.37429e-07
2.7566e-06
1.41539e-06
7.37307e-07
9.04528e-06
1.41555e-06
9.05047e-06
7.37554e-07
2.75719e-06
1.41598e-06
7.37435e-07
9.04991e-06
2.42441e-05
2.4245e-05
3.34774e-07
3.32033e-07
3.32035e-07
3.31179e-07
3.34773e-07
3.32032e-07
3.32032e-07
3.31175e-07
3.34757e-07
3.3202e-07
3.32026e-07
3.31168e-07
3.3478e-07
3.3204e-07
3.32047e-07
3.31179e-07
3.34773e-07
3.32032e-07
3.32034e-07
3.31177e-07
3.34772e-07
3.32031e-07
3.32031e-07
3.31173e-07
4.15817e-07
5.83976e-07
4.03035e-07
6.24225e-07
4.0319e-07
6.24391e-07
4.15589e-07
4.56222e-07
7.87153e-07
1.32504e-06
5.49173e-07
5.49396e-07
7.87424e-07
4.55968e-07
6.27574e-07
3.83243e-07
4.54179e-07
4.54196e-07
4.54318e-07
4.54337e-07
6.27421e-07
6.27427e-07
3.83031e-07
4.54327e-07
4.54344e-07
6.27587e-07
4.54184e-07
4.54201e-07
4.15583e-07
6.24381e-07
4.03191e-07
5.83864e-07
4.15814e-07
6.24224e-07
4.03038e-07
4.5598e-07
7.87386e-07
5.49426e-07
1.32463e-06
5.49215e-07
4.56234e-07
7.87144e-07
4.15584e-07
6.24373e-07
4.03191e-07
5.83868e-07
4.15813e-07
6.2422e-07
4.03039e-07
4.55994e-07
7.87435e-07
5.49463e-07
1.32469e-06
4.56246e-07
7.87192e-07
5.49246e-07
6.27412e-07
3.83017e-07
4.54343e-07
4.54313e-07
4.54203e-07
6.27571e-07
4.54172e-07
4.15833e-07
5.84004e-07
4.03061e-07
6.24272e-07
4.03216e-07
6.2443e-07
4.15606e-07
4.56266e-07
7.8722e-07
1.32537e-06
5.49288e-07
7.8748e-07
4.56012e-07
5.49512e-07
4.1559e-07
6.2438e-07
4.03219e-07
5.83868e-07
4.15819e-07
6.2422e-07
4.03065e-07
4.55984e-07
7.87411e-07
5.49455e-07
1.32457e-06
5.49231e-07
4.56237e-07
7.87161e-07
4.15599e-07
4.0324e-07
6.24463e-07
5.83909e-07
4.15833e-07
4.03085e-07
6.2431e-07
4.56022e-07
7.87529e-07
5.49542e-07
1.32483e-06
4.5629e-07
7.87305e-07
5.49325e-07
4.15818e-07
5.83992e-07
4.0305e-07
6.24243e-07
4.03204e-07
6.24406e-07
4.15593e-07
4.56237e-07
7.87193e-07
1.32506e-06
5.492e-07
5.4942e-07
7.8746e-07
4.55984e-07
4.15577e-07
6.24367e-07
4.03196e-07
5.83853e-07
4.15808e-07
6.24203e-07
4.03043e-07
4.55965e-07
7.87403e-07
5.49391e-07
1.32441e-06
4.56223e-07
5.49172e-07
7.87142e-07
4.15586e-07
4.03227e-07
6.24444e-07
5.83896e-07
4.1582e-07
4.03073e-07
6.24284e-07
4.55995e-07
7.87514e-07
5.49452e-07
1.32464e-06
4.56261e-07
7.87283e-07
5.49238e-07
6.27608e-07
3.8327e-07
4.5424e-07
4.54207e-07
4.54346e-07
4.54381e-07
6.27455e-07
6.2748e-07
3.83076e-07
4.54407e-07
4.54371e-07
4.54265e-07
6.27643e-07
4.54231e-07
4.15826e-07
5.83998e-07
4.03056e-07
6.24239e-07
4.03212e-07
6.24405e-07
4.15598e-07
4.56243e-07
7.87161e-07
1.32516e-06
5.49247e-07
5.49471e-07
7.87418e-07
4.55987e-07
4.15579e-07
4.03216e-07
6.24422e-07
5.83876e-07
4.15818e-07
4.03061e-07
6.24258e-07
4.55976e-07
7.87467e-07
5.49422e-07
1.32462e-06
4.56246e-07
5.49205e-07
7.87231e-07
4.15591e-07
4.03236e-07
6.24443e-07
5.83896e-07
4.15828e-07
4.0308e-07
6.2428e-07
4.55997e-07
7.87472e-07
5.49502e-07
1.32474e-06
4.56267e-07
7.8725e-07
5.49285e-07
6.27447e-07
3.83051e-07
4.54342e-07
4.54362e-07
6.2761e-07
4.54202e-07
4.54221e-07
2.42376e-05
2.42393e-05
3.82885e-07
2.75818e-06
2.75873e-06
1.6563e-06
8.52445e-06
1.65624e-06
5.83843e-07
3.54691e-07
1.32564e-06
3.40545e-07
5.83846e-07
3.40548e-07
1.65608e-06
8.52571e-06
5.83851e-07
3.54669e-07
1.32584e-06
3.40527e-07
1.65614e-06
8.52574e-06
5.83858e-07
3.54677e-07
3.40529e-07
1.32605e-06
2.42393e-05
3.8288e-07
2.75904e-06
2.75823e-06
2.42386e-05
5.83884e-07
3.54651e-07
3.4053e-07
1.32571e-06
5.83856e-07
3.40548e-07
1.65639e-06
8.52596e-06
1.65611e-06
2.42376e-05
2.42393e-05
4.02251e-06
2.75946e-05
2.75975e-05
4.02273e-06
2.75954e-05
2.75982e-05
1.41541e-06
9.0535e-06
7.37317e-07
2.75793e-06
1.41552e-06
9.05316e-06
7.37162e-07
1.41676e-06
9.05622e-06
7.37672e-07
2.75846e-06
1.4169e-06
9.05584e-06
7.37497e-07
1.51339e-05
1.29106e-05
1.8896e-06
1.65607e-06
1.51341e-05
1.291e-05
1.88933e-06
2.89228e-05
3.37852e-06
8.52393e-06
2.89245e-05
3.37789e-06
1.51341e-05
1.291e-05
1.88935e-06
1.65601e-06
1.51342e-05
1.29093e-05
1.88919e-06
1.51341e-05
1.88939e-06
1.29111e-05
1.65593e-06
1.51342e-05
1.88923e-06
1.29106e-05
2.89231e-05
3.37851e-06
8.52528e-06
2.89243e-05
3.37804e-06
1.51344e-05
1.29121e-05
1.88977e-06
1.656e-06
1.51346e-05
1.29118e-05
1.8895e-06
2.89235e-05
3.37888e-06
8.52528e-06
2.8925e-05
3.37819e-06
2.42392e-05
4.02253e-06
2.7598e-05
2.75942e-05
4.02272e-06
2.75987e-05
2.75949e-05
1.41637e-06
9.05658e-06
7.37576e-07
2.75857e-06
7.37409e-07
1.41651e-06
9.05618e-06
1.41554e-06
9.05184e-06
7.37372e-07
2.75797e-06
1.41569e-06
9.05148e-06
7.3721e-07
2.42386e-05
1.51338e-05
1.88981e-06
1.29104e-05
1.65615e-06
1.51341e-05
1.88954e-06
1.29097e-05
2.8924e-05
3.37867e-06
8.52552e-06
2.89252e-05
3.37826e-06
1.51333e-05
1.88963e-06
1.29107e-05
1.65596e-06
1.51335e-05
1.88937e-06
1.29101e-05
3.34213e-07
3.31454e-07
3.31455e-07
3.30575e-07
3.31479e-07
3.3059e-07
3.34236e-07
3.31474e-07
3.31476e-07
3.30584e-07
3.31479e-07
3.30591e-07
6.27368e-07
3.82673e-07
4.5402e-07
4.54107e-07
6.27544e-07
4.53896e-07
4.53979e-07
4.15273e-07
6.24255e-07
4.02858e-07
5.83722e-07
4.15506e-07
6.24102e-07
4.0271e-07
4.55724e-07
7.8744e-07
5.49211e-07
1.32497e-06
5.4901e-07
4.56002e-07
7.87155e-07
4.15292e-07
6.24278e-07
4.0286e-07
5.83725e-07
4.15517e-07
6.24117e-07
4.02713e-07
4.15278e-07
6.24264e-07
4.02859e-07
5.83724e-07
4.15515e-07
6.24097e-07
4.02712e-07
4.55736e-07
7.87478e-07
5.49295e-07
1.3251e-06
5.49087e-07
4.56019e-07
7.87188e-07
4.15295e-07
4.02866e-07
6.24299e-07
5.83738e-07
4.15528e-07
4.02721e-07
6.24143e-07
4.55764e-07
7.87537e-07
5.49318e-07
1.32529e-06
4.56046e-07
7.87248e-07
5.49111e-07
6.2733e-07
3.82667e-07
4.54062e-07
4.54029e-07
4.53935e-07
6.27498e-07
4.53905e-07
4.15285e-07
4.02862e-07
6.24298e-07
5.83755e-07
4.15521e-07
4.02716e-07
6.24132e-07
4.55726e-07
7.87473e-07
5.49218e-07
1.32502e-06
4.56012e-07
5.49012e-07
7.87186e-07
4.15304e-07
4.02864e-07
6.24304e-07
5.83736e-07
4.15529e-07
4.0272e-07
6.24142e-07
3.34198e-07
3.54628e-07
3.54652e-07
3.8288e-07
3.34197e-07
3.54628e-07
3.54642e-07
3.82877e-07
3.54653e-07
3.54651e-07
3.54671e-07
3.54654e-07
3.82877e-07
3.82652e-07
3.54649e-07
3.5463e-07
3.54653e-07
3.54635e-07
3.54653e-07
3.5464e-07
3.82661e-07
3.82889e-07
3.54694e-07
3.5467e-07
3.82894e-07
3.54645e-07
3.54659e-07
3.54669e-07
3.82891e-07
3.54657e-07
1.65592e-06
8.52467e-06
1.65635e-06
8.52434e-06
2.42389e-05
2.42384e-05
3.34202e-07
3.34205e-07
3.34202e-07
3.342e-07
3.34207e-07
3.34211e-07
3.34207e-07
5.83723e-07
1.32574e-06
3.40514e-07
3.54646e-07
1.32504e-06
3.40533e-07
5.83857e-07
5.83754e-07
3.40516e-07
1.32573e-06
3.54683e-07
3.40536e-07
5.83888e-07
1.32509e-06
2.75813e-06
2.75871e-06
3.82656e-07
2.75757e-06
2.75815e-06
1.65577e-06
8.5248e-06
1.65629e-06
8.52387e-06
2.42389e-05
2.42386e-05
1.6556e-06
8.52573e-06
8.52511e-06
1.65608e-06
3.34225e-07
3.34232e-07
3.34225e-07
5.83729e-07
1.32574e-06
3.40511e-07
3.54639e-07
5.83857e-07
1.32508e-06
3.40524e-07
2.42396e-05
2.42386e-05
5.83751e-07
3.40517e-07
1.32574e-06
3.54646e-07
5.83888e-07
3.40524e-07
1.32507e-06
2.75813e-06
2.75872e-06
3.82659e-07
2.75779e-06
2.75839e-06
1.65584e-06
8.52533e-06
8.52444e-06
1.65634e-06
5.83738e-07
1.32571e-06
3.40517e-07
3.54683e-07
3.40536e-07
5.83866e-07
1.32522e-06
5.83735e-07
1.32582e-06
3.40515e-07
3.54667e-07
1.32514e-06
3.40533e-07
5.83871e-07
1.65627e-06
8.52426e-06
1.65578e-06
8.52439e-06
1.65611e-06
8.52477e-06
8.52449e-06
1.65572e-06
5.83883e-07
3.54677e-07
1.32509e-06
3.40522e-07
3.40527e-07
5.83732e-07
1.32575e-06
5.8388e-07
3.5466e-07
1.32514e-06
3.4052e-07
1.32568e-06
3.40524e-07
5.83731e-07
2.75866e-06
2.7583e-06
3.8265e-07
2.75807e-06
2.75762e-06
2.42362e-05
2.42353e-05
2.42387e-05
2.42401e-05
3.82893e-07
2.75809e-06
2.75765e-06
2.75833e-06
2.75797e-06
2.4236e-05
2.4237e-05
1.65582e-06
8.52497e-06
8.52409e-06
1.65635e-06
5.8373e-07
3.40514e-07
1.32572e-06
3.54666e-07
3.40533e-07
1.32504e-06
5.83865e-07
1.65582e-06
8.52582e-06
8.52494e-06
1.65634e-06
5.83867e-07
3.54643e-07
1.32506e-06
3.40514e-07
1.32561e-06
3.40529e-07
5.83726e-07
1.65619e-06
8.52435e-06
8.52412e-06
1.65586e-06
5.83873e-07
3.54658e-07
3.4052e-07
1.32504e-06
3.40523e-07
1.32559e-06
5.83731e-07
1.65618e-06
8.52526e-06
8.52497e-06
1.65585e-06
5.83733e-07
3.40515e-07
1.32584e-06
3.54653e-07
3.40533e-07
1.32517e-06
5.83867e-07
1.65587e-06
8.52598e-06
1.65639e-06
8.52497e-06
1.65566e-06
8.52637e-06
8.5255e-06
1.65613e-06
5.83897e-07
3.54682e-07
3.40518e-07
1.3251e-06
3.40532e-07
5.83754e-07
1.32568e-06
5.83875e-07
3.54645e-07
3.4052e-07
1.32517e-06
3.40523e-07
1.32571e-06
5.83734e-07
1.65624e-06
8.52511e-06
1.6559e-06
8.52499e-06
1.65597e-06
8.52582e-06
8.52551e-06
1.65569e-06
2.42392e-05
2.42386e-05
2.424e-05
2.42395e-05
3.829e-07
2.7576e-06
2.75819e-06
2.75782e-06
2.7584e-06
2.4239e-05
2.42404e-05
2.42399e-05
2.42413e-05
2.42385e-05
2.42372e-05
2.42389e-05
2.42389e-05
2.75861e-06
2.75898e-06
3.82668e-07
2.75769e-06
2.75828e-06
1.65572e-06
8.52473e-06
1.65607e-06
8.5251e-06
5.83714e-07
1.32561e-06
3.4054e-07
3.54689e-07
5.83869e-07
1.325e-06
3.4054e-07
5.83716e-07
1.32568e-06
3.40538e-07
3.54672e-07
5.83869e-07
1.32517e-06
3.40538e-07
2.75834e-06
2.758e-06
3.82658e-07
2.75829e-06
2.75775e-06
2.42378e-05
2.42362e-05
5.83719e-07
1.32591e-06
3.40515e-07
3.54664e-07
1.32521e-06
3.40521e-07
5.83855e-07
1.65566e-06
8.52589e-06
8.52506e-06
1.65614e-06
5.83731e-07
3.40517e-07
1.32605e-06
3.54676e-07
3.40522e-07
1.32536e-06
5.83867e-07
1.65604e-06
8.52416e-06
1.65621e-06
8.52477e-06
5.83734e-07
3.40537e-07
1.32559e-06
3.54671e-07
5.83874e-07
3.40539e-07
1.32511e-06
1.65603e-06
8.52518e-06
1.6562e-06
8.5256e-06
2.7591e-06
2.75835e-06
3.82664e-07
2.75844e-06
2.7577e-06
2.42385e-05
2.42382e-05
5.83727e-07
3.40539e-07
1.32572e-06
3.54659e-07
5.83875e-07
3.40539e-07
1.3252e-06
1.65587e-06
8.52515e-06
1.65626e-06
8.52537e-06
1.65565e-06
8.52572e-06
1.65599e-06
8.52615e-06
2.42407e-05
2.42391e-05
2.42416e-05
2.424e-05
1.51349e-05
1.29099e-05
1.65636e-06
1.88914e-06
1.29098e-05
1.88963e-06
1.51338e-05
2.89234e-05
3.37865e-06
8.52376e-06
3.37747e-06
2.89241e-05
1.51341e-05
1.65573e-06
1.29103e-05
1.88969e-06
1.29088e-05
1.88903e-06
1.51341e-05
2.89268e-05
3.37765e-06
8.52444e-06
3.37829e-06
2.89253e-05
2.4239e-05
2.4239e-05
4.02284e-06
2.75939e-05
2.75972e-05
2.75942e-05
2.75974e-05
4.02168e-06
1.41527e-06
7.37368e-07
2.75742e-06
9.05209e-06
7.372e-07
9.05105e-06
1.41573e-06
1.41588e-06
7.37491e-07
2.758e-06
9.05673e-06
7.37328e-07
9.05571e-06
1.41631e-06
1.41566e-06
9.05132e-06
2.75797e-06
7.37203e-07
7.37366e-07
9.05165e-06
1.41521e-06
1.41624e-06
9.05598e-06
2.75855e-06
7.3733e-07
7.37488e-07
9.0563e-06
1.41582e-06
4.02211e-06
2.75941e-05
2.75973e-05
2.75941e-05
2.75974e-05
4.02257e-06
1.51346e-05
1.6562e-06
1.29098e-05
1.88902e-06
1.29098e-05
1.88951e-06
1.51334e-05
2.8923e-05
3.37847e-06
8.52355e-06
2.89247e-05
3.37724e-06
1.51339e-05
1.65567e-06
1.29103e-05
1.8896e-06
1.51343e-05
1.29088e-05
1.88891e-06
2.89264e-05
3.37758e-06
8.52405e-06
3.37824e-06
2.89243e-05
2.42389e-05
2.4239e-05
1.51347e-05
1.88887e-06
1.29106e-05
1.656e-06
1.88932e-06
1.29106e-05
1.51336e-05
2.89224e-05
8.52469e-06
3.37856e-06
3.37742e-06
2.89238e-05
2.89258e-05
3.3777e-06
8.52526e-06
3.37829e-06
2.89241e-05
1.5134e-05
1.65551e-06
1.8894e-06
1.2911e-05
1.88878e-06
1.29097e-05
1.51343e-05
2.42396e-05
2.42397e-05
4.02285e-06
2.75943e-05
2.75976e-05
2.75946e-05
2.75979e-05
4.02244e-06
1.41527e-06
7.37364e-07
9.05211e-06
2.75742e-06
1.41573e-06
7.372e-07
9.05106e-06
1.41587e-06
7.37487e-07
9.05674e-06
2.75802e-06
1.4163e-06
7.37327e-07
9.05574e-06
4.02214e-06
2.75941e-05
2.75974e-05
4.02259e-06
2.75957e-05
2.7599e-05
1.41566e-06
9.05146e-06
2.75797e-06
7.37214e-07
7.37368e-07
9.05166e-06
1.41552e-06
1.41624e-06
9.0562e-06
2.75856e-06
7.37344e-07
7.37493e-07
9.05634e-06
1.41614e-06
1.51345e-05
1.29102e-05
1.88885e-06
1.65626e-06
1.29098e-05
1.88929e-06
1.51335e-05
2.89229e-05
8.52417e-06
3.37872e-06
3.37757e-06
2.89243e-05
2.89263e-05
3.37785e-06
8.52466e-06
3.37844e-06
2.89245e-05
1.51338e-05
1.65572e-06
1.29101e-05
1.88938e-06
1.29087e-05
1.88875e-06
1.5134e-05
1.51342e-05
1.29093e-05
1.65581e-06
1.88954e-06
1.51345e-05
1.29093e-05
1.88906e-06
2.89245e-05
3.3775e-06
8.5245e-06
2.89241e-05
3.37816e-06
1.5134e-05
1.65623e-06
1.29097e-05
1.88904e-06
1.51336e-05
1.291e-05
1.88954e-06
2.89242e-05
3.37794e-06
8.52406e-06
2.89255e-05
3.37732e-06
1.51338e-05
1.29101e-05
1.88919e-06
1.65571e-06
1.51341e-05
1.29101e-05
1.88876e-06
2.89238e-05
8.5249e-06
3.37785e-06
3.37845e-06
2.89238e-05
2.89233e-05
3.37816e-06
8.52436e-06
2.89249e-05
3.37759e-06
1.51338e-05
1.65615e-06
1.29103e-05
1.88884e-06
1.29106e-05
1.88929e-06
1.51336e-05
4.02279e-06
2.75966e-05
2.75938e-05
2.75973e-05
2.75946e-05
4.02162e-06
1.41586e-06
7.37525e-07
2.75793e-06
9.05627e-06
9.05512e-06
7.3736e-07
1.4163e-06
1.41507e-06
7.37335e-07
2.75749e-06
9.05227e-06
7.37169e-07
9.05112e-06
1.41551e-06
1.41623e-06
9.05528e-06
2.75849e-06
7.3736e-07
9.0557e-06
7.37521e-07
1.4158e-06
1.41544e-06
9.05129e-06
2.75812e-06
7.37169e-07
7.37331e-07
9.0517e-06
1.41501e-06
4.02207e-06
2.75968e-05
2.7594e-05
2.75982e-05
2.75955e-05
4.02252e-06
2.42362e-05
2.42363e-05
2.42394e-05
2.42393e-05
4.022e-06
2.75982e-05
2.75953e-05
4.02244e-06
2.75981e-05
2.75953e-05
1.41637e-06
7.37352e-07
2.75851e-06
9.05545e-06
7.37513e-07
9.05578e-06
1.41579e-06
1.41557e-06
7.37161e-07
2.75814e-06
9.05145e-06
9.05178e-06
7.37323e-07
1.415e-06
1.41587e-06
9.05529e-06
7.37516e-07
2.75794e-06
7.37357e-07
1.41631e-06
9.05507e-06
1.41507e-06
9.05129e-06
7.37326e-07
2.7575e-06
1.41552e-06
9.05107e-06
7.37166e-07
4.02211e-06
2.75969e-05
2.75941e-05
2.75976e-05
2.75947e-05
4.02172e-06
2.42368e-05
2.42363e-05
1.51342e-05
1.8888e-06
1.29101e-05
1.65626e-06
1.88925e-06
1.291e-05
1.51331e-05
2.89218e-05
8.52379e-06
3.37843e-06
3.37728e-06
2.89233e-05
2.89253e-05
3.37755e-06
8.52431e-06
3.37815e-06
2.89235e-05
1.51335e-05
1.65572e-06
1.88935e-06
1.29104e-05
1.88871e-06
1.29089e-05
1.51337e-05
1.51351e-05
1.291e-05
1.88892e-06
1.65625e-06
1.291e-05
1.88937e-06
1.51341e-05
2.89236e-05
8.52466e-06
3.37867e-06
3.37751e-06
2.8925e-05
2.8927e-05
3.37778e-06
8.52516e-06
3.37839e-06
2.89252e-05
1.51344e-05
1.65571e-06
1.29103e-05
1.88947e-06
1.29089e-05
1.88883e-06
1.51347e-05
1.51335e-05
1.88915e-06
1.291e-05
1.65576e-06
1.51337e-05
1.88872e-06
1.291e-05
2.89227e-05
8.52449e-06
3.37756e-06
3.37816e-06
2.89228e-05
2.89223e-05
3.37787e-06
8.52386e-06
2.89238e-05
3.3773e-06
1.51335e-05
1.6563e-06
1.88881e-06
1.29107e-05
1.88926e-06
1.29108e-05
1.51333e-05
1.51344e-05
1.291e-05
1.88927e-06
1.65576e-06
1.51347e-05
1.29099e-05
1.88884e-06
2.89245e-05
8.52539e-06
3.37779e-06
3.37839e-06
2.89245e-05
2.8924e-05
3.3781e-06
8.52485e-06
2.89256e-05
3.37753e-06
1.51345e-05
1.6563e-06
1.29105e-05
1.88892e-06
1.29108e-05
1.88937e-06
1.51342e-05
1.51346e-05
1.29102e-05
1.6563e-06
1.88923e-06
1.88972e-06
1.29102e-05
1.51335e-05
2.89233e-05
3.3787e-06
8.52476e-06
3.37757e-06
2.89248e-05
1.51339e-05
1.65576e-06
1.88981e-06
1.29106e-05
1.88912e-06
1.29091e-05
1.51343e-05
2.89268e-05
3.37783e-06
8.52526e-06
3.37843e-06
2.8925e-05
1.51338e-05
1.88907e-06
1.29107e-05
1.65604e-06
1.88958e-06
1.29105e-05
1.51326e-05
2.89207e-05
8.52522e-06
3.37875e-06
3.37749e-06
2.89222e-05
2.89243e-05
3.37776e-06
8.52571e-06
3.37847e-06
2.89224e-05
1.51331e-05
1.65556e-06
1.88969e-06
1.29108e-05
1.88899e-06
1.29094e-05
1.51335e-05
1.51339e-05
1.29102e-05
1.6558e-06
1.88963e-06
1.51342e-05
1.88914e-06
1.29102e-05
2.89243e-05
3.37784e-06
8.52527e-06
3.37843e-06
2.89243e-05
1.51339e-05
1.65635e-06
1.88922e-06
1.29108e-05
1.88972e-06
1.2911e-05
1.51337e-05
2.89238e-05
3.37815e-06
8.52479e-06
2.89253e-05
3.37759e-06
1.5133e-05
1.88948e-06
1.29106e-05
1.6556e-06
1.51334e-05
1.88899e-06
1.29107e-05
2.89217e-05
8.52595e-06
3.37778e-06
3.37849e-06
2.89218e-05
2.89211e-05
3.3782e-06
8.52539e-06
2.89228e-05
3.37752e-06
1.51331e-05
1.65609e-06
1.88907e-06
1.29111e-05
1.88958e-06
1.29112e-05
1.51329e-05
2.42392e-05
2.42393e-05
2.42401e-05
2.42402e-05
4.02207e-06
2.75965e-05
2.75997e-05
4.0225e-06
2.75961e-05
2.75994e-05
1.41579e-06
7.37202e-07
2.758e-06
9.05149e-06
1.41519e-06
7.37364e-07
9.0518e-06
1.41636e-06
7.37328e-07
2.75859e-06
9.05611e-06
1.41579e-06
7.37487e-07
9.05637e-06
1.41528e-06
9.05135e-06
7.37363e-07
2.75744e-06
1.41574e-06
7.37204e-07
9.05115e-06
1.41587e-06
9.05603e-06
7.37485e-07
2.75803e-06
1.41632e-06
7.3733e-07
9.05574e-06
4.02218e-06
2.7594e-05
2.75973e-05
4.02179e-06
2.75947e-05
2.75979e-05
2.42397e-05
2.42396e-05
2.42406e-05
2.42405e-05
2.42382e-05
2.42379e-05
2.42392e-05
2.42394e-05
4.02317e-06
2.75946e-05
2.75974e-05
2.75948e-05
2.75974e-05
4.02196e-06
1.41507e-06
7.37451e-07
2.75765e-06
9.05459e-06
9.05262e-06
7.37173e-07
1.41591e-06
1.41661e-06
7.37642e-07
2.75826e-06
9.05563e-06
9.05531e-06
7.37519e-07
1.41705e-06
1.41541e-06
9.05284e-06
2.75814e-06
7.37159e-07
9.05309e-06
1.415e-06
7.37314e-07
1.41702e-06
9.05572e-06
2.75876e-06
7.37531e-07
9.05604e-06
1.41649e-06
7.37702e-07
4.02228e-06
2.75953e-05
2.75958e-05
2.75959e-05
2.75978e-05
4.02276e-06
1.51346e-05
1.65616e-06
1.29094e-05
1.88886e-06
1.29098e-05
1.8893e-06
1.51335e-05
2.89226e-05
3.37817e-06
8.5246e-06
2.89239e-05
3.3776e-06
1.51339e-05
1.65564e-06
1.29094e-05
1.88919e-06
1.29094e-05
1.51342e-05
1.88876e-06
2.89261e-05
3.3782e-06
8.52523e-06
3.37848e-06
2.89247e-05
4.02277e-06
2.75972e-05
2.75944e-05
2.75971e-05
2.75944e-05
4.02236e-06
1.41586e-06
7.37507e-07
9.05549e-06
2.75795e-06
9.05536e-06
1.4163e-06
7.3735e-07
1.41507e-06
7.37318e-07
9.0515e-06
2.75754e-06
7.3716e-07
1.4155e-06
9.05136e-06
4.02206e-06
2.75982e-05
2.75954e-05
2.75972e-05
4.02253e-06
2.75944e-05
1.41624e-06
9.05592e-06
2.75851e-06
7.37361e-07
9.0561e-06
7.37514e-07
1.41614e-06
1.41544e-06
9.05191e-06
2.75817e-06
7.37171e-07
7.37324e-07
9.0521e-06
1.41535e-06
2.42368e-05
2.4237e-05
1.5135e-05
1.29111e-05
1.8892e-06
1.65604e-06
1.29107e-05
1.8897e-06
1.51339e-05
2.89229e-05
8.52472e-06
3.37895e-06
3.3777e-06
2.89244e-05
2.89265e-05
3.37797e-06
8.52527e-06
3.37866e-06
2.89247e-05
1.51343e-05
1.65556e-06
1.29111e-05
1.8898e-06
1.29097e-05
1.88911e-06
1.51347e-05
1.51343e-05
1.65628e-06
1.88911e-06
1.29099e-05
1.88928e-06
1.29102e-05
1.51339e-05
2.89215e-05
3.37788e-06
8.52411e-06
3.37732e-06
2.89228e-05
1.51336e-05
1.65577e-06
1.88916e-06
1.29098e-05
1.88874e-06
1.51339e-05
1.29098e-05
2.8925e-05
3.37792e-06
8.52496e-06
3.37819e-06
2.89236e-05
1.51352e-05
1.65627e-06
1.29097e-05
1.88922e-06
1.291e-05
1.88939e-06
1.51348e-05
2.89233e-05
3.3781e-06
8.52508e-06
2.89246e-05
3.37754e-06
1.51346e-05
1.65576e-06
1.29097e-05
1.88927e-06
1.51349e-05
1.29097e-05
1.88885e-06
2.89268e-05
3.37814e-06
8.52573e-06
3.37841e-06
2.89254e-05
4.0232e-06
2.75981e-05
2.75941e-05
2.75994e-05
2.75942e-05
4.02199e-06
1.41606e-06
7.37577e-07
2.75831e-06
9.05676e-06
9.05573e-06
7.37417e-07
1.41651e-06
1.41516e-06
7.37366e-07
2.75759e-06
9.0523e-06
7.372e-07
9.05105e-06
1.41561e-06
1.4164e-06
9.05593e-06
2.75892e-06
7.37412e-07
9.05626e-06
7.37571e-07
1.41597e-06
1.41558e-06
9.05118e-06
2.75814e-06
7.37208e-07
7.3737e-07
9.05163e-06
1.41513e-06
4.02254e-06
2.75975e-05
2.75939e-05
2.76e-05
2.7594e-05
4.02304e-06
2.42386e-05
2.42388e-05
1.51346e-05
1.65633e-06
1.88923e-06
1.29099e-05
1.88973e-06
1.29103e-05
1.51334e-05
2.8923e-05
3.37814e-06
8.52495e-06
3.37759e-06
2.89244e-05
1.51339e-05
1.65581e-06
1.88962e-06
1.29099e-05
1.88914e-06
1.51343e-05
1.29099e-05
2.89265e-05
3.37786e-06
8.52553e-06
3.37845e-06
2.89248e-05
1.51338e-05
1.65605e-06
1.88909e-06
1.29103e-05
1.88959e-06
1.29105e-05
1.51326e-05
2.89198e-05
3.37822e-06
8.52563e-06
2.89217e-05
3.37754e-06
1.51331e-05
1.65559e-06
1.88948e-06
1.29103e-05
1.51335e-05
1.88899e-06
1.29103e-05
2.89228e-05
3.37797e-06
8.52627e-06
3.37852e-06
2.89214e-05
2.42397e-05
2.42398e-05
2.42406e-05
2.42407e-05
3.31441e-07
3.31443e-07
3.3422e-07
3.31462e-07
3.31465e-07
3.3057e-07
3.30573e-07
6.27295e-07
4.54024e-07
4.54042e-07
3.82667e-07
4.53898e-07
4.53915e-07
6.27472e-07
3.31439e-07
3.31441e-07
3.34206e-07
3.31447e-07
3.31448e-07
3.30569e-07
3.30572e-07
6.27292e-07
4.54021e-07
4.54041e-07
3.82664e-07
6.27471e-07
4.53896e-07
4.53912e-07
6.27279e-07
4.54047e-07
4.5402e-07
3.8266e-07
4.5389e-07
4.53919e-07
6.2746e-07
6.27451e-07
3.82888e-07
4.53908e-07
4.53879e-07
4.5406e-07
4.54032e-07
6.27286e-07
6.27465e-07
3.82895e-07
4.53891e-07
4.53907e-07
6.27302e-07
4.54039e-07
4.54058e-07
6.27364e-07
4.5403e-07
4.54097e-07
3.82677e-07
4.53891e-07
4.53989e-07
6.27543e-07
6.27275e-07
4.54069e-07
4.54042e-07
3.8267e-07
4.53896e-07
6.27456e-07
4.53924e-07
6.27317e-07
4.54067e-07
4.54034e-07
3.82677e-07
4.53909e-07
4.5394e-07
6.27495e-07
3.31441e-07
3.31444e-07
3.34221e-07
3.31461e-07
3.31464e-07
3.30575e-07
3.30579e-07
3.31442e-07
3.31445e-07
3.34226e-07
3.31465e-07
3.31463e-07
3.30576e-07
3.3058e-07
3.31441e-07
3.31441e-07
3.34221e-07
3.31461e-07
3.3146e-07
3.30573e-07
3.30576e-07
3.34216e-07
3.31441e-07
3.31444e-07
3.31457e-07
3.3146e-07
3.30592e-07
3.30588e-07
3.34211e-07
3.31448e-07
3.3145e-07
3.3145e-07
3.31453e-07
3.30595e-07
3.30594e-07
3.34216e-07
3.31449e-07
3.31451e-07
3.31454e-07
3.31452e-07
3.30596e-07
3.30595e-07
3.34211e-07
3.31447e-07
3.31447e-07
3.31449e-07
3.31449e-07
3.30592e-07
3.30591e-07
4.15496e-07
6.2408e-07
4.02701e-07
5.8386e-07
6.24257e-07
4.02863e-07
4.15274e-07
4.55716e-07
5.49212e-07
1.32499e-06
7.87461e-07
5.49001e-07
7.87168e-07
4.55991e-07
4.56007e-07
7.87178e-07
1.32567e-06
5.48989e-07
5.49223e-07
7.8746e-07
4.55734e-07
4.1527e-07
5.83732e-07
6.24252e-07
4.02856e-07
6.24085e-07
4.02707e-07
4.15512e-07
4.15514e-07
4.02715e-07
5.83893e-07
6.24138e-07
4.02877e-07
6.24311e-07
4.15294e-07
4.55738e-07
5.4923e-07
7.87478e-07
1.325e-06
7.87195e-07
4.56007e-07
5.49022e-07
4.15291e-07
5.83758e-07
4.0287e-07
6.24302e-07
4.02722e-07
6.24137e-07
4.15531e-07
4.56023e-07
7.87209e-07
1.32571e-06
5.4901e-07
7.87479e-07
4.55756e-07
5.49242e-07
6.27476e-07
3.82888e-07
4.5389e-07
4.53906e-07
4.54033e-07
4.54052e-07
6.27305e-07
3.31468e-07
3.31469e-07
3.34228e-07
3.31468e-07
3.31471e-07
3.30577e-07
3.30579e-07
3.3147e-07
3.31472e-07
3.3423e-07
3.31468e-07
3.31471e-07
3.30578e-07
3.30581e-07
3.31466e-07
3.31468e-07
3.34227e-07
3.31469e-07
3.31467e-07
3.30578e-07
3.30578e-07
4.15496e-07
5.8386e-07
6.24088e-07
4.02705e-07
6.24259e-07
4.02862e-07
4.15273e-07
4.55715e-07
5.49208e-07
7.87461e-07
1.325e-06
4.5599e-07
5.49e-07
7.87169e-07
4.1527e-07
5.83732e-07
6.2425e-07
4.02854e-07
4.15512e-07
6.24084e-07
4.02706e-07
4.56005e-07
7.87182e-07
1.3257e-06
5.48996e-07
5.49221e-07
7.87461e-07
4.55729e-07
4.15513e-07
5.83893e-07
4.02713e-07
6.2413e-07
4.02875e-07
6.24307e-07
4.15289e-07
4.55732e-07
5.49222e-07
7.87478e-07
1.32502e-06
4.56007e-07
5.49012e-07
7.87192e-07
4.15288e-07
5.83758e-07
4.02868e-07
6.24301e-07
4.15528e-07
4.0272e-07
6.24135e-07
4.5602e-07
7.87198e-07
1.32568e-06
5.48999e-07
5.49233e-07
7.87474e-07
4.55744e-07
6.27475e-07
3.82886e-07
4.53897e-07
4.53913e-07
4.54032e-07
4.5405e-07
6.27312e-07
4.15507e-07
4.02712e-07
5.83878e-07
6.24114e-07
6.24285e-07
4.02876e-07
4.15288e-07
4.55737e-07
5.49242e-07
7.87467e-07
1.32502e-06
7.87188e-07
4.56005e-07
5.49055e-07
4.15282e-07
5.83741e-07
6.24269e-07
4.02869e-07
6.2411e-07
4.02719e-07
4.15521e-07
4.56028e-07
7.8721e-07
1.32582e-06
5.49107e-07
7.87484e-07
4.55764e-07
5.49323e-07
4.15508e-07
6.24109e-07
4.02713e-07
5.83876e-07
6.24285e-07
4.02877e-07
4.15284e-07
4.55757e-07
5.49288e-07
1.32509e-06
7.87538e-07
7.87244e-07
5.49078e-07
4.5603e-07
4.56039e-07
7.87249e-07
1.32575e-06
5.49062e-07
7.8753e-07
4.55765e-07
5.49296e-07
4.15284e-07
5.83746e-07
6.24282e-07
4.0287e-07
6.24115e-07
4.0272e-07
4.15525e-07
4.15278e-07
4.02885e-07
5.83744e-07
6.24289e-07
4.15517e-07
6.24117e-07
4.02729e-07
4.56004e-07
5.49053e-07
7.87168e-07
1.3257e-06
7.87453e-07
4.55744e-07
5.49268e-07
4.15524e-07
5.83876e-07
6.24101e-07
4.02713e-07
6.24278e-07
4.0288e-07
4.15294e-07
4.55741e-07
7.87467e-07
5.49337e-07
1.32506e-06
4.5603e-07
7.87184e-07
5.49056e-07
4.15277e-07
6.24283e-07
4.02886e-07
5.83742e-07
4.15516e-07
6.2411e-07
4.02729e-07
4.56013e-07
5.49058e-07
1.32574e-06
7.8723e-07
7.87512e-07
5.4929e-07
4.55751e-07
4.55746e-07
7.87506e-07
5.49303e-07
1.32508e-06
4.56028e-07
7.87232e-07
5.49072e-07
4.15525e-07
5.83873e-07
6.24101e-07
4.02713e-07
6.24279e-07
4.0288e-07
4.15294e-07
6.27462e-07
3.82884e-07
4.53909e-07
4.5388e-07
4.54028e-07
4.54056e-07
6.27289e-07
6.27282e-07
3.82667e-07
4.54072e-07
4.54044e-07
4.53928e-07
6.27462e-07
4.53899e-07
4.15508e-07
4.02709e-07
6.24111e-07
5.83867e-07
4.02871e-07
6.24289e-07
4.15286e-07
4.55747e-07
5.49231e-07
1.325e-06
7.87527e-07
5.49022e-07
7.87231e-07
4.56021e-07
4.56029e-07
7.87233e-07
1.32565e-06
5.49011e-07
5.49244e-07
7.87517e-07
4.55756e-07
4.15285e-07
5.83739e-07
4.02865e-07
6.24286e-07
4.02715e-07
6.24121e-07
4.15526e-07
4.15266e-07
6.24261e-07
4.02876e-07
5.8373e-07
4.15506e-07
6.24089e-07
4.0272e-07
4.55984e-07
5.48987e-07
1.32568e-06
7.87177e-07
4.55712e-07
5.49222e-07
7.87462e-07
4.55716e-07