/*--------------------------------*- C++ -*----------------------------------*\
| =========                 |                                                 |
| \\      /  F ield         | OpenFOAM: The Open Source CFD Toolbox           |
|  \\    /   O peration     | Version:  v1912                                 |
|   \\  /    A nd           | Website:  www.openfoam.com                      |
|    \\/     M anipulation  |                                                 |
\*---------------------------------------------------------------------------*/
FoamFile
{
    version     2.0;
    format      ascii;
    class       volScalarField;
    location    "20";
    object      k;
}
// * * * * * * * * * * * * * * * * * * * * * * * * * * * * * * * * * * * * * //

dimensions      [0 2 -2 0 0 0 0];


internalField   nonuniform List<scalar> 
57566
(
8.34554e-05
2.76296e-05
2.87322e-05
2.89142e-05
2.97322e-05
2.83698e-05
3.31971e-05
3.31977e-05
8.34619e-05
8.34653e-05
2.83715e-05
3.31942e-05
3.31973e-05
3.01198e-05
6.80061e-05
3.01196e-05
6.80116e-05
2.76318e-05
2.87326e-05
2.97348e-05
2.89148e-05
2.76319e-05
2.87327e-05
2.97364e-05
2.89148e-05
8.34648e-05
2.83715e-05
3.31971e-05
3.31935e-05
8.34614e-05
3.01193e-05
6.80045e-05
2.76329e-05
2.87322e-05
2.89144e-05
2.97346e-05
3.01201e-05
6.80117e-05
2.76344e-05
2.87329e-05
2.97357e-05
2.89151e-05
3.01245e-05
6.80047e-05
2.76375e-05
2.87322e-05
2.89144e-05
2.97409e-05
2.76325e-05
2.87319e-05
2.89145e-05
2.97336e-05
3.01195e-05
6.80068e-05
2.7631e-05
2.87323e-05
2.97337e-05
2.89145e-05
3.01203e-05
6.80087e-05
2.76372e-05
2.87319e-05
2.89144e-05
2.97395e-05
3.01247e-05
6.8007e-05
2.83744e-05
3.31956e-05
3.31979e-05
8.34599e-05
8.34532e-05
2.83733e-05
3.32013e-05
3.3203e-05
8.34568e-05
2.76329e-05
2.87321e-05
2.89145e-05
2.97344e-05
3.01193e-05
6.80072e-05
3.01194e-05
6.80087e-05
2.76346e-05
2.87322e-05
2.89142e-05
2.9738e-05
2.76376e-05
2.87321e-05
2.89144e-05
2.97402e-05
3.01243e-05
6.8007e-05
3.01245e-05
6.80088e-05
8.34599e-05
8.34599e-05
2.83689e-05
3.3202e-05
3.32027e-05
8.34569e-05
8.34569e-05
8.34627e-05
3.54311e-05
8.44598e-05
8.44612e-05
8.44666e-05
8.44679e-05
3.54338e-05
2.9567e-05
6.88806e-05
3.31962e-05
2.73745e-05
2.73746e-05
6.88868e-05
2.95657e-05
2.95679e-05
6.8892e-05
3.31968e-05
2.73742e-05
2.73742e-05
6.88979e-05
2.95667e-05
8.34551e-05
8.34593e-05
3.54341e-05
8.44667e-05
8.44678e-05
3.54316e-05
8.44609e-05
8.44619e-05
2.95676e-05
6.88837e-05
2.73771e-05
3.31941e-05
2.95688e-05
6.88798e-05
2.73771e-05
2.95686e-05
6.8899e-05
2.73772e-05
3.31986e-05
2.95701e-05
6.88922e-05
2.73772e-05
8.09414e-05
7.85249e-05
3.00855e-05
3.01188e-05
8.09482e-05
7.85229e-05
3.00849e-05
8.40744e-05
3.51067e-05
6.80037e-05
8.40838e-05
3.51081e-05
8.09427e-05
7.85246e-05
3.00851e-05
3.01185e-05
8.09503e-05
7.8522e-05
3.00847e-05
8.40766e-05
3.51154e-05
6.8009e-05
8.40865e-05
3.51169e-05
8.34589e-05
3.54332e-05
8.44678e-05
8.44665e-05
3.54306e-05
8.44626e-05
8.44612e-05
2.95688e-05
6.88951e-05
2.73773e-05
3.31981e-05
2.73773e-05
2.95701e-05
6.88904e-05
2.95669e-05
6.88855e-05
2.7377e-05
3.31938e-05
2.95681e-05
6.88804e-05
2.73768e-05
8.34547e-05
8.09477e-05
3.01202e-05
7.8522e-05
3.00863e-05
7.85262e-05
3.00869e-05
8.09404e-05
8.40795e-05
3.5109e-05
6.80107e-05
3.51079e-05
8.40703e-05
8.09433e-05
3.00858e-05
7.85275e-05
3.01194e-05
8.09512e-05
3.00855e-05
7.85234e-05
8.40764e-05
3.51138e-05
6.80096e-05
8.40864e-05
3.51154e-05
8.09364e-05
7.8522e-05
3.0092e-05
3.01237e-05
8.09406e-05
7.85198e-05
3.00913e-05
8.40515e-05
3.51157e-05
6.80022e-05
8.40654e-05
3.51176e-05
8.09492e-05
3.01205e-05
7.85181e-05
3.00861e-05
7.85229e-05
3.00864e-05
8.09426e-05
8.4084e-05
3.51141e-05
6.80126e-05
3.51127e-05
8.40753e-05
8.09423e-05
3.00852e-05
7.85236e-05
3.01192e-05
8.095e-05
3.00847e-05
7.85214e-05
8.40765e-05
3.51141e-05
6.80059e-05
8.40865e-05
3.51155e-05
8.09392e-05
7.85179e-05
3.00915e-05
3.01235e-05
8.09427e-05
7.85165e-05
3.00911e-05
8.40563e-05
3.51199e-05
6.80045e-05
8.40695e-05
3.51224e-05
3.54318e-05
8.44621e-05
8.44608e-05
8.44691e-05
8.44677e-05
3.54344e-05
2.95684e-05
6.88898e-05
3.3195e-05
2.73768e-05
6.88965e-05
2.73769e-05
2.95671e-05
2.95668e-05
6.88788e-05
3.31969e-05
2.73777e-05
2.73779e-05
6.88855e-05
2.95655e-05
8.34667e-05
8.34436e-05
3.54467e-05
8.44578e-05
8.44564e-05
3.5444e-05
8.44477e-05
8.44463e-05
2.95687e-05
6.88898e-05
2.73818e-05
3.32017e-05
2.73818e-05
2.95701e-05
6.88866e-05
2.95671e-05
6.88788e-05
2.73827e-05
3.32039e-05
2.95685e-05
6.88756e-05
2.73826e-05
8.34476e-05
8.09493e-05
3.01201e-05
3.00862e-05
7.85219e-05
3.00866e-05
7.85258e-05
8.09428e-05
8.4084e-05
3.51141e-05
6.80131e-05
3.51127e-05
8.40753e-05
8.09487e-05
3.01201e-05
3.00864e-05
7.85218e-05
3.00868e-05
7.85258e-05
8.09422e-05
8.40834e-05
3.51146e-05
6.80146e-05
3.51131e-05
8.40747e-05
8.09394e-05
3.00915e-05
7.85219e-05
3.01235e-05
8.09428e-05
3.00911e-05
7.85199e-05
8.40563e-05
3.51198e-05
6.80048e-05
8.40695e-05
3.51223e-05
8.09388e-05
3.00918e-05
7.85218e-05
3.01237e-05
8.09422e-05
3.00914e-05
7.85198e-05
8.40557e-05
3.51203e-05
6.80065e-05
8.4069e-05
3.51228e-05
8.34667e-05
8.34667e-05
3.5446e-05
8.44555e-05
8.44569e-05
3.54433e-05
8.44456e-05
8.4447e-05
2.95671e-05
6.88806e-05
2.73795e-05
3.32029e-05
2.95686e-05
2.73794e-05
6.88778e-05
2.95682e-05
6.88922e-05
2.73792e-05
3.32035e-05
2.95695e-05
2.73792e-05
6.88892e-05
8.34477e-05
8.34477e-05
2.90208e-05
2.90756e-05
2.90757e-05
2.90979e-05
2.90207e-05
2.90756e-05
2.90756e-05
2.90977e-05
2.90205e-05
2.90754e-05
2.90758e-05
2.90978e-05
2.90212e-05
2.90759e-05
2.90763e-05
2.90979e-05
2.90208e-05
2.90756e-05
2.90757e-05
2.90978e-05
2.90207e-05
2.90755e-05
2.90755e-05
2.90976e-05
2.81091e-05
2.76296e-05
2.82532e-05
2.73525e-05
2.82515e-05
2.73522e-05
2.81106e-05
2.78593e-05
2.72717e-05
2.97351e-05
2.7724e-05
2.77238e-05
2.72716e-05
2.78606e-05
2.75947e-05
2.83665e-05
2.79159e-05
2.7915e-05
2.79152e-05
2.79143e-05
2.75946e-05
2.75965e-05
2.83736e-05
2.79196e-05
2.79193e-05
2.75969e-05
2.79195e-05
2.79193e-05
2.81091e-05
2.73551e-05
2.8255e-05
2.76317e-05
2.81064e-05
2.7355e-05
2.82555e-05
2.78614e-05
2.72726e-05
2.77261e-05
2.97318e-05
2.77261e-05
2.78591e-05
2.72725e-05
2.81094e-05
2.73553e-05
2.82552e-05
2.76319e-05
2.81067e-05
2.73552e-05
2.82556e-05
2.7862e-05
2.72743e-05
2.77266e-05
2.97336e-05
2.78597e-05
2.72742e-05
2.77267e-05
2.75965e-05
2.83735e-05
2.79193e-05
2.79197e-05
2.79192e-05
2.75968e-05
2.79198e-05
2.81092e-05
2.7633e-05
2.82571e-05
2.73546e-05
2.82558e-05
2.73544e-05
2.81107e-05
2.78587e-05
2.72734e-05
2.97376e-05
2.77267e-05
2.72734e-05
2.78602e-05
2.77267e-05
2.81095e-05
2.73557e-05
2.82576e-05
2.76344e-05
2.81066e-05
2.73555e-05
2.8258e-05
2.78619e-05
2.7274e-05
2.77265e-05
2.97329e-05
2.77265e-05
2.78595e-05
2.7274e-05
2.81091e-05
2.82567e-05
2.73574e-05
2.76374e-05
2.81075e-05
2.82572e-05
2.73573e-05
2.78588e-05
2.72783e-05
2.77309e-05
2.97379e-05
2.78571e-05
2.72782e-05
2.77309e-05
2.81094e-05
2.76327e-05
2.82567e-05
2.73551e-05
2.82555e-05
2.73548e-05
2.8111e-05
2.78591e-05
2.72743e-05
2.97365e-05
2.77267e-05
2.77268e-05
2.72744e-05
2.78606e-05
2.81092e-05
2.73552e-05
2.82556e-05
2.76309e-05
2.81063e-05
2.73552e-05
2.82561e-05
2.78619e-05
2.72746e-05
2.77262e-05
2.97308e-05
2.78595e-05
2.77261e-05
2.72746e-05
2.81094e-05
2.82571e-05
2.7358e-05
2.76371e-05
2.81078e-05
2.82574e-05
2.73581e-05
2.78591e-05
2.72792e-05
2.7731e-05
2.97367e-05
2.78574e-05
2.72791e-05
2.77309e-05
2.75961e-05
2.83714e-05
2.79211e-05
2.79216e-05
2.79218e-05
2.79211e-05
2.75959e-05
2.75948e-05
2.83753e-05
2.79237e-05
2.79242e-05
2.79237e-05
2.75949e-05
2.79242e-05
2.81094e-05
2.7633e-05
2.82565e-05
2.73553e-05
2.82555e-05
2.7355e-05
2.8111e-05
2.78591e-05
2.7274e-05
2.97372e-05
2.77267e-05
2.77268e-05
2.72743e-05
2.78605e-05
2.81086e-05
2.82532e-05
2.73553e-05
2.76346e-05
2.8107e-05
2.82537e-05
2.73552e-05
2.78585e-05
2.72749e-05
2.77264e-05
2.9735e-05
2.78569e-05
2.77264e-05
2.72749e-05
2.81094e-05
2.82569e-05
2.73582e-05
2.76376e-05
2.81077e-05
2.82572e-05
2.73582e-05
2.7859e-05
2.72782e-05
2.77309e-05
2.97373e-05
2.78573e-05
2.72778e-05
2.77309e-05
2.75928e-05
2.8371e-05
2.79159e-05
2.79161e-05
2.75932e-05
2.79162e-05
2.79161e-05
8.34353e-05
8.34351e-05
2.83364e-05
3.31952e-05
3.31937e-05
3.00959e-05
6.80436e-05
3.00958e-05
2.75919e-05
2.87027e-05
2.97104e-05
2.88864e-05
2.75929e-05
2.88871e-05
3.00959e-05
6.80465e-05
2.75922e-05
2.87015e-05
2.97101e-05
2.88852e-05
3.00956e-05
6.80444e-05
2.75924e-05
2.87014e-05
2.88852e-05
2.97114e-05
8.34323e-05
2.83367e-05
3.31944e-05
3.31965e-05
8.34352e-05
2.75919e-05
2.87023e-05
2.88857e-05
2.97106e-05
2.75924e-05
2.88872e-05
3.00973e-05
6.80478e-05
3.00961e-05
8.34353e-05
8.34351e-05
3.54523e-05
8.442e-05
8.44199e-05
3.54528e-05
8.44217e-05
8.44214e-05
2.95388e-05
6.89192e-05
2.73394e-05
3.3193e-05
2.95412e-05
6.89175e-05
2.73405e-05
2.95434e-05
6.89196e-05
2.73381e-05
3.3191e-05
2.95467e-05
6.89176e-05
2.73391e-05
8.09671e-05
7.85729e-05
3.00648e-05
3.00957e-05
8.09681e-05
7.85705e-05
3.00642e-05
8.40282e-05
3.51265e-05
6.80411e-05
8.40315e-05
3.51245e-05
8.097e-05
7.85704e-05
3.0066e-05
3.00956e-05
8.09703e-05
7.85677e-05
3.00659e-05
8.09693e-05
3.00665e-05
7.85741e-05
3.0096e-05
8.09699e-05
3.00663e-05
7.85718e-05
8.40313e-05
3.51319e-05
6.80442e-05
8.40337e-05
3.51302e-05
8.09675e-05
7.85779e-05
3.00653e-05
3.00956e-05
8.09684e-05
7.85764e-05
3.00647e-05
8.40285e-05
3.51272e-05
6.80419e-05
8.40313e-05
3.51251e-05
8.34323e-05
3.54528e-05
8.44202e-05
8.44187e-05
3.54533e-05
8.44214e-05
8.44203e-05
2.95474e-05
6.89212e-05
2.73395e-05
3.31921e-05
2.73405e-05
2.95501e-05
6.89192e-05
2.95455e-05
6.89111e-05
2.73404e-05
3.31943e-05
2.95481e-05
6.89091e-05
2.73414e-05
8.34353e-05
8.09667e-05
3.00679e-05
7.85708e-05
3.0097e-05
8.09677e-05
3.00673e-05
7.85679e-05
8.40319e-05
3.51327e-05
6.80455e-05
8.40342e-05
3.51311e-05
8.09671e-05
3.00664e-05
7.85724e-05
3.00958e-05
8.09678e-05
3.00658e-05
7.857e-05
2.89932e-05
2.90493e-05
2.90488e-05
2.90707e-05
2.90506e-05
2.90715e-05
2.89939e-05
2.90497e-05
2.90499e-05
2.9071e-05
2.90506e-05
2.90716e-05
2.75602e-05
2.83405e-05
2.78806e-05
2.78802e-05
2.756e-05
2.78827e-05
2.78823e-05
2.80791e-05
2.73164e-05
2.82189e-05
2.75935e-05
2.80767e-05
2.73179e-05
2.82219e-05
2.78271e-05
2.7238e-05
2.76884e-05
2.97097e-05
2.76899e-05
2.78249e-05
2.72394e-05
2.80816e-05
2.73201e-05
2.82196e-05
2.75944e-05
2.80785e-05
2.73221e-05
2.82226e-05
2.80787e-05
2.73162e-05
2.82178e-05
2.75936e-05
2.80764e-05
2.73177e-05
2.82206e-05
2.78268e-05
2.72378e-05
2.76876e-05
2.97094e-05
2.7689e-05
2.78246e-05
2.72388e-05
2.80786e-05
2.82187e-05
2.73157e-05
2.75939e-05
2.80763e-05
2.82215e-05
2.73172e-05
2.78266e-05
2.72374e-05
2.76878e-05
2.97106e-05
2.78244e-05
2.72387e-05
2.76893e-05
2.75616e-05
2.83408e-05
2.78805e-05
2.78812e-05
2.78826e-05
2.75614e-05
2.78834e-05
2.80789e-05
2.82184e-05
2.73165e-05
2.75934e-05
2.80766e-05
2.82212e-05
2.73181e-05
2.78275e-05
2.72393e-05
2.76883e-05
2.971e-05
2.78252e-05
2.76899e-05
2.72406e-05
2.80813e-05
2.82196e-05
2.73191e-05
2.75939e-05
2.80782e-05
2.82225e-05
2.73212e-05
2.89923e-05
2.87016e-05
2.87015e-05
2.83362e-05
2.89923e-05
2.87015e-05
2.87016e-05
2.8336e-05
2.87011e-05
2.8701e-05
2.87012e-05
2.87012e-05
2.83373e-05
2.83409e-05
2.87008e-05
2.87018e-05
2.8701e-05
2.8701e-05
2.87019e-05
2.87012e-05
2.834e-05
2.83369e-05
2.87024e-05
2.87023e-05
2.83416e-05
2.87009e-05
2.87008e-05
2.87021e-05
2.83371e-05
2.87023e-05
3.00964e-05
6.80448e-05
3.00976e-05
6.80415e-05
8.34362e-05
8.34349e-05
2.89921e-05
2.89921e-05
2.8992e-05
2.89925e-05
2.89926e-05
2.89925e-05
2.89924e-05
2.75935e-05
2.97106e-05
2.88849e-05
2.87028e-05
2.97082e-05
2.8886e-05
2.75925e-05
2.75935e-05
2.88849e-05
2.97113e-05
2.87026e-05
2.8886e-05
2.75925e-05
2.97091e-05
3.31974e-05
3.31977e-05
2.83404e-05
3.31958e-05
3.31962e-05
3.00947e-05
6.80448e-05
3.0096e-05
6.80405e-05
8.34361e-05
8.34354e-05
3.00951e-05
6.8047e-05
6.80433e-05
3.00966e-05
2.89937e-05
2.89936e-05
2.89934e-05
2.75957e-05
2.97106e-05
2.88849e-05
2.87023e-05
2.75924e-05
2.97088e-05
2.88857e-05
8.34332e-05
8.34309e-05
2.75924e-05
2.88849e-05
2.97111e-05
2.87019e-05
2.75924e-05
2.88852e-05
2.97087e-05
3.31973e-05
3.31978e-05
2.83415e-05
3.31956e-05
3.31962e-05
3.00956e-05
6.80477e-05
6.80429e-05
3.00972e-05
2.75938e-05
2.97119e-05
2.88846e-05
2.87021e-05
2.88856e-05
2.75931e-05
2.97098e-05
2.75941e-05
2.97129e-05
2.88846e-05
2.87021e-05
2.97104e-05
2.88856e-05
2.75933e-05
3.01005e-05
6.80419e-05
3.0095e-05
6.80416e-05
3.00993e-05
6.80446e-05
6.80429e-05
3.00943e-05
2.75966e-05
2.87017e-05
2.97089e-05
2.88849e-05
2.88851e-05
2.75941e-05
2.97148e-05
2.75967e-05
2.87016e-05
2.97098e-05
2.8885e-05
2.97155e-05
2.88851e-05
2.75944e-05
3.31976e-05
3.31934e-05
2.83413e-05
3.31958e-05
3.31915e-05
8.34326e-05
8.34304e-05
8.34355e-05
8.34389e-05
2.83421e-05
3.31959e-05
3.31916e-05
3.31971e-05
3.31931e-05
8.34319e-05
8.34344e-05
3.00953e-05
6.80452e-05
6.80405e-05
3.00969e-05
2.75939e-05
2.88846e-05
2.97116e-05
2.87019e-05
2.88856e-05
2.97092e-05
2.75931e-05
3.00952e-05
6.80475e-05
6.80428e-05
3.00967e-05
2.75964e-05
2.87027e-05
2.97083e-05
2.88851e-05
2.97136e-05
2.88859e-05
2.75926e-05
3.00993e-05
6.80418e-05
6.80405e-05
3.00957e-05
2.75966e-05
2.87014e-05
2.8885e-05
2.97087e-05
2.88851e-05
2.97143e-05
2.75942e-05
3.00991e-05
6.80444e-05
6.80428e-05
3.00955e-05
2.75939e-05
2.88846e-05
2.9712e-05
2.87021e-05
2.88856e-05
2.97096e-05
2.75931e-05
3.00955e-05
6.80478e-05
3.0097e-05
6.80424e-05
3.00949e-05
6.80494e-05
6.80447e-05
3.00965e-05
2.75964e-05
2.87026e-05
2.8885e-05
2.97091e-05
2.88858e-05
2.75926e-05
2.97146e-05
2.75966e-05
2.87016e-05
2.88851e-05
2.97091e-05
2.88852e-05
2.97147e-05
2.75942e-05
3.00995e-05
6.80433e-05
3.00958e-05
6.80423e-05
3.00986e-05
6.80464e-05
6.80446e-05
3.00952e-05
8.34361e-05
8.34349e-05
8.3436e-05
8.34348e-05
2.83415e-05
3.3196e-05
3.31964e-05
3.31972e-05
3.31976e-05
8.34357e-05
8.34391e-05
8.34356e-05
8.3439e-05
8.34362e-05
8.34345e-05
8.3435e-05
8.34342e-05
3.31975e-05
3.31961e-05
2.83407e-05
3.31942e-05
3.3193e-05
3.00946e-05
6.80447e-05
3.00981e-05
6.80463e-05
2.75921e-05
2.97139e-05
2.88861e-05
2.87024e-05
2.75968e-05
2.97084e-05
2.8886e-05
2.7593e-05
2.9715e-05
2.88863e-05
2.87025e-05
2.7597e-05
2.97106e-05
2.88862e-05
3.31973e-05
3.31933e-05
2.83423e-05
3.31961e-05
3.31917e-05
8.34362e-05
8.34324e-05
2.75929e-05
2.97121e-05
2.88845e-05
2.87012e-05
2.97086e-05
2.88848e-05
2.75934e-05
3.00948e-05
6.80453e-05
6.80408e-05
3.00965e-05
2.75931e-05
2.88845e-05
2.97123e-05
2.87011e-05
2.88848e-05
2.97094e-05
2.75933e-05
3.00962e-05
6.80408e-05
3.00997e-05
6.8044e-05
2.75962e-05
2.88861e-05
2.97138e-05
2.87023e-05
2.75969e-05
2.88863e-05
2.97093e-05
3.00959e-05
6.80444e-05
3.00994e-05
6.80462e-05
3.3195e-05
3.31972e-05
2.83409e-05
3.31929e-05
3.31952e-05
8.34351e-05
8.34343e-05
2.75925e-05
2.88864e-05
2.97142e-05
2.87025e-05
2.75969e-05
2.88864e-05
2.97096e-05
3.00962e-05
6.80433e-05
3.00998e-05
6.80447e-05
3.00952e-05
6.80462e-05
3.00989e-05
6.80481e-05
8.34396e-05
8.3436e-05
8.34396e-05
8.3436e-05
8.09701e-05
7.85692e-05
3.0099e-05
3.00649e-05
7.85692e-05
3.00675e-05
8.09662e-05
8.40285e-05
3.51267e-05
6.80396e-05
3.51227e-05
8.40307e-05
8.09675e-05
3.00971e-05
7.85716e-05
3.00664e-05
7.85656e-05
3.0066e-05
8.09681e-05
8.40351e-05
3.51239e-05
6.80425e-05
3.51252e-05
8.40322e-05
8.34361e-05
8.34363e-05
3.54547e-05
8.44187e-05
8.44201e-05
8.44192e-05
8.44205e-05
3.54506e-05
2.9545e-05
2.73398e-05
3.31958e-05
6.89119e-05
2.7342e-05
6.89066e-05
2.95479e-05
2.95461e-05
2.73393e-05
3.31961e-05
6.89232e-05
2.73414e-05
6.89181e-05
2.95489e-05
2.95492e-05
6.8908e-05
3.31973e-05
2.73405e-05
2.73412e-05
6.89097e-05
2.95465e-05
2.95501e-05
6.89195e-05
3.31976e-05
2.73398e-05
2.73407e-05
6.89211e-05
2.95475e-05
3.54532e-05
8.4419e-05
8.44203e-05
8.44194e-05
8.44207e-05
3.5454e-05
8.09697e-05
3.00971e-05
7.85698e-05
3.00636e-05
7.85698e-05
3.00663e-05
8.09656e-05
8.40286e-05
3.51268e-05
6.80385e-05
8.40319e-05
3.51225e-05
8.09672e-05
3.00956e-05
7.85718e-05
3.00657e-05
8.09686e-05
7.85658e-05
3.00651e-05
8.40352e-05
3.5124e-05
6.80415e-05
3.51254e-05
8.40313e-05
8.34364e-05
8.34365e-05
8.09716e-05
3.00656e-05
7.85717e-05
3.00975e-05
3.00681e-05
7.85716e-05
8.09678e-05
8.403e-05
6.80412e-05
3.51326e-05
3.51286e-05
8.40328e-05
8.40366e-05
3.51298e-05
6.80441e-05
3.51311e-05
8.40332e-05
8.09691e-05
3.00965e-05
3.00671e-05
7.85734e-05
3.00669e-05
7.85681e-05
8.097e-05
8.34333e-05
8.34333e-05
3.5455e-05
8.44195e-05
8.44209e-05
8.44201e-05
8.44216e-05
3.54534e-05
2.9545e-05
2.73402e-05
6.8912e-05
3.31957e-05
2.95479e-05
2.73439e-05
6.89067e-05
2.95458e-05
2.73395e-05
6.89233e-05
3.31962e-05
2.95485e-05
2.73431e-05
6.89183e-05
3.54534e-05
8.4419e-05
8.44204e-05
3.54541e-05
8.44225e-05
8.44239e-05
2.95493e-05
6.89087e-05
3.31973e-05
2.73438e-05
2.73437e-05
6.89097e-05
2.95469e-05
2.95499e-05
6.89206e-05
3.31978e-05
2.73433e-05
2.73433e-05
6.89213e-05
2.95477e-05
8.09712e-05
7.85708e-05
3.00645e-05
3.00981e-05
7.85695e-05
3.00669e-05
8.09675e-05
8.40303e-05
6.80415e-05
3.51339e-05
3.51298e-05
8.40331e-05
8.40369e-05
3.51309e-05
6.80441e-05
3.51322e-05
8.40335e-05
8.09687e-05
3.00968e-05
7.85708e-05
3.0066e-05
7.85651e-05
3.00659e-05
8.09696e-05
8.09674e-05
7.85671e-05
3.00981e-05
3.00688e-05
8.09687e-05
7.85673e-05
3.00663e-05
8.40307e-05
3.51243e-05
6.80432e-05
8.40307e-05
3.51259e-05
8.09674e-05
3.0098e-05
7.85693e-05
3.00646e-05
8.09662e-05
7.85702e-05
3.00673e-05
8.40302e-05
3.51239e-05
6.80404e-05
8.40326e-05
3.51234e-05
8.09688e-05
7.85705e-05
3.00679e-05
3.0097e-05
8.09698e-05
7.85706e-05
3.00656e-05
8.40321e-05
6.80454e-05
3.51313e-05
3.51327e-05
8.4032e-05
8.40311e-05
3.51309e-05
6.80425e-05
8.40341e-05
3.51305e-05
8.09688e-05
3.00972e-05
7.85719e-05
3.00644e-05
7.85728e-05
3.00667e-05
8.09679e-05
3.54551e-05
8.442e-05
8.44189e-05
8.44215e-05
8.44205e-05
3.54508e-05
2.95466e-05
2.73402e-05
3.31958e-05
6.89216e-05
6.89158e-05
2.73423e-05
2.95494e-05
2.95449e-05
2.73401e-05
3.31915e-05
6.89126e-05
2.73423e-05
6.89068e-05
2.95477e-05
2.95507e-05
6.89166e-05
3.31973e-05
2.73407e-05
6.89188e-05
2.73417e-05
2.95481e-05
2.95489e-05
6.89077e-05
3.31933e-05
2.73407e-05
2.73417e-05
6.89098e-05
2.95463e-05
3.54535e-05
8.44203e-05
8.44191e-05
8.44235e-05
8.44224e-05
3.54543e-05
8.34328e-05
8.34327e-05
8.34373e-05
8.3437e-05
3.54523e-05
8.44232e-05
8.44219e-05
3.5453e-05
8.4423e-05
8.44217e-05
2.95482e-05
2.73403e-05
3.31974e-05
6.89174e-05
2.73411e-05
6.89191e-05
2.9548e-05
2.95463e-05
2.73402e-05
3.31934e-05
6.89084e-05
6.89101e-05
2.73411e-05
2.95462e-05
2.95469e-05
6.89167e-05
2.73434e-05
3.31958e-05
2.73427e-05
2.95497e-05
6.89155e-05
2.9545e-05
6.89077e-05
2.73434e-05
3.31917e-05
2.95479e-05
6.89065e-05
2.73426e-05
3.54522e-05
8.44205e-05
8.44194e-05
8.44219e-05
8.44205e-05
3.54523e-05
8.34337e-05
8.34326e-05
8.09708e-05
3.00644e-05
7.85698e-05
3.00978e-05
3.00669e-05
7.85696e-05
8.09671e-05
8.40303e-05
6.80389e-05
3.51326e-05
3.51285e-05
8.40331e-05
8.4037e-05
3.51297e-05
6.80417e-05
3.5131e-05
8.40335e-05
8.09683e-05
3.00965e-05
3.00659e-05
7.85711e-05
3.00658e-05
7.85652e-05
8.09692e-05
8.09714e-05
7.85698e-05
3.00643e-05
3.00976e-05
7.85696e-05
3.00667e-05
8.09678e-05
8.40309e-05
6.80414e-05
3.51326e-05
3.51285e-05
8.40337e-05
8.40375e-05
3.51296e-05
6.8044e-05
3.5131e-05
8.40341e-05
8.09689e-05
3.00963e-05
7.85709e-05
3.00658e-05
7.85651e-05
3.00657e-05
8.09698e-05
8.09684e-05
3.00679e-05
7.85696e-05
3.00969e-05
8.09694e-05
3.00657e-05
7.85696e-05
8.40321e-05
6.80426e-05
3.51301e-05
3.51315e-05
8.4032e-05
8.40312e-05
3.51297e-05
6.80394e-05
8.40342e-05
3.51292e-05
8.09685e-05
3.00982e-05
3.00645e-05
7.85724e-05
3.00668e-05
7.85731e-05
8.09676e-05
8.0969e-05
7.85695e-05
3.00678e-05
3.00967e-05
8.097e-05
7.85695e-05
3.00655e-05
8.40327e-05
6.80452e-05
3.51299e-05
3.51313e-05
8.40326e-05
8.40317e-05
3.51296e-05
6.80423e-05
8.40347e-05
3.51291e-05
8.09691e-05
3.00979e-05
7.8572e-05
3.00642e-05
7.85729e-05
3.00666e-05
8.09683e-05
8.09695e-05
7.857e-05
3.00979e-05
3.0066e-05
3.00686e-05
7.85699e-05
8.09655e-05
8.40307e-05
3.51329e-05
6.80413e-05
3.51288e-05
8.40335e-05
8.0967e-05
3.00966e-05
3.00676e-05
7.85714e-05
3.0067e-05
7.85655e-05
8.09684e-05
8.40374e-05
3.513e-05
6.8044e-05
3.51313e-05
8.40339e-05
8.09689e-05
3.00645e-05
7.85723e-05
3.00972e-05
3.00672e-05
7.85713e-05
8.09649e-05
8.4027e-05
6.80433e-05
3.51286e-05
3.51241e-05
8.40299e-05
8.4034e-05
3.51252e-05
6.80459e-05
3.51269e-05
8.40302e-05
8.09664e-05
3.00964e-05
3.00665e-05
7.85728e-05
3.00659e-05
7.85672e-05
8.09678e-05
8.09669e-05
7.85698e-05
3.0097e-05
3.00698e-05
8.0968e-05
3.00674e-05
7.85698e-05
8.40325e-05
3.51302e-05
6.80442e-05
3.51317e-05
8.40324e-05
8.09671e-05
3.00983e-05
3.00661e-05
7.85725e-05
3.00688e-05
7.85733e-05
8.09662e-05
8.40315e-05
3.51301e-05
6.80414e-05
8.40345e-05
3.51294e-05
8.09662e-05
3.00683e-05
7.8572e-05
3.00964e-05
8.09674e-05
3.00658e-05
7.85721e-05
8.40289e-05
6.80471e-05
3.51258e-05
3.51276e-05
8.4029e-05
8.40278e-05
3.51256e-05
6.80442e-05
8.40311e-05
3.51248e-05
8.09665e-05
3.00974e-05
3.00646e-05
7.85741e-05
3.00672e-05
7.85745e-05
8.09656e-05
8.34361e-05
8.34364e-05
8.3436e-05
8.34363e-05
3.54521e-05
8.44238e-05
8.44252e-05
3.54527e-05
8.44232e-05
8.44245e-05
2.95467e-05
2.73401e-05
3.31975e-05
6.89088e-05
2.95463e-05
2.73415e-05
6.89104e-05
2.95473e-05
2.73394e-05
3.31979e-05
6.89201e-05
2.95471e-05
2.73407e-05
6.89214e-05
2.95453e-05
6.89081e-05
2.73433e-05
3.3196e-05
2.95482e-05
2.73425e-05
6.89071e-05
2.9546e-05
6.89197e-05
2.73426e-05
3.31964e-05
2.95489e-05
2.73418e-05
6.89182e-05
3.5452e-05
8.44189e-05
8.44203e-05
3.5452e-05
8.44203e-05
8.44216e-05
8.34375e-05
8.34371e-05
8.34374e-05
8.3437e-05
8.3436e-05
8.34361e-05
8.34353e-05
8.34356e-05
3.54553e-05
8.44199e-05
8.44199e-05
8.44205e-05
8.44211e-05
3.54509e-05
2.95389e-05
2.73408e-05
3.31946e-05
6.89198e-05
6.89133e-05
2.73427e-05
2.95441e-05
2.95451e-05
2.73401e-05
3.3194e-05
6.89215e-05
6.89167e-05
2.73424e-05
2.95482e-05
2.95418e-05
6.89159e-05
3.31958e-05
2.73399e-05
6.89169e-05
2.95396e-05
2.73422e-05
2.95492e-05
6.8917e-05
3.31951e-05
2.73391e-05
6.89193e-05
2.9546e-05
2.73419e-05
3.54534e-05
8.44199e-05
8.44185e-05
8.44223e-05
8.44223e-05
3.54542e-05
8.09715e-05
3.0097e-05
7.85684e-05
3.00651e-05
7.85699e-05
3.00673e-05
8.09676e-05
8.40297e-05
3.51315e-05
6.80438e-05
8.40322e-05
3.51308e-05
8.09692e-05
3.00958e-05
7.85684e-05
3.00681e-05
7.85683e-05
8.09702e-05
3.0066e-05
8.40365e-05
3.51324e-05
6.8047e-05
3.51332e-05
8.40337e-05
3.54549e-05
8.44211e-05
8.442e-05
8.4421e-05
8.44199e-05
3.54532e-05
2.95465e-05
2.73431e-05
6.89177e-05
3.3196e-05
6.89169e-05
2.95494e-05
2.7343e-05
2.95446e-05
2.73429e-05
6.89087e-05
3.31917e-05
2.73427e-05
2.95475e-05
6.89079e-05
3.54534e-05
8.44232e-05
8.4422e-05
8.44212e-05
3.54542e-05
8.44199e-05
2.95504e-05
6.89197e-05
3.31977e-05
2.73432e-05
6.89207e-05
2.7343e-05
2.9548e-05
2.95486e-05
6.89107e-05
3.31935e-05
2.7343e-05
2.73429e-05
6.89117e-05
2.95462e-05
8.34338e-05
8.34343e-05
8.09699e-05
7.85736e-05
3.00642e-05
3.00972e-05
7.85724e-05
3.00669e-05
8.09659e-05
8.40274e-05
6.80391e-05
3.51281e-05
3.51237e-05
8.40303e-05
8.40344e-05
3.51248e-05
6.8042e-05
3.51265e-05
8.40307e-05
8.09674e-05
3.00964e-05
7.85737e-05
3.00662e-05
7.85683e-05
3.00656e-05
8.09688e-05
8.09713e-05
3.00984e-05
3.00653e-05
7.85694e-05
3.00673e-05
7.85707e-05
8.09699e-05
8.40297e-05
3.513e-05
6.80405e-05
3.51296e-05
8.40321e-05
8.0969e-05
3.00973e-05
3.00681e-05
7.85689e-05
3.00661e-05
8.09699e-05
7.85689e-05
8.40365e-05
3.51313e-05
6.8045e-05
3.51321e-05
8.40338e-05
8.09718e-05
3.00981e-05
7.85689e-05
3.00651e-05
7.85701e-05
3.00672e-05
8.09705e-05
8.40303e-05
3.51298e-05
6.80436e-05
8.40328e-05
3.51294e-05
8.09695e-05
3.0097e-05
7.85686e-05
3.00679e-05
8.09705e-05
7.85685e-05
3.00659e-05
8.40371e-05
3.5131e-05
6.80469e-05
3.51318e-05
8.40343e-05
3.54562e-05
8.44202e-05
8.44186e-05
8.44229e-05
8.44187e-05
3.54516e-05
2.9547e-05
2.73394e-05
3.3193e-05
6.89226e-05
6.89172e-05
2.73416e-05
2.95497e-05
2.95447e-05
2.73404e-05
3.31953e-05
6.89133e-05
2.73426e-05
6.89072e-05
2.95476e-05
2.9551e-05
6.89182e-05
3.31946e-05
2.73397e-05
6.89199e-05
2.73416e-05
2.95485e-05
2.95491e-05
6.89078e-05
3.31968e-05
2.73406e-05
2.73426e-05
6.89101e-05
2.95465e-05
3.54549e-05
8.44197e-05
8.44182e-05
8.44242e-05
8.44183e-05
3.5456e-05
8.34351e-05
8.34355e-05
8.09695e-05
3.00986e-05
3.00665e-05
7.85689e-05
3.0069e-05
7.85706e-05
8.09653e-05
8.403e-05
3.51302e-05
6.80425e-05
3.51297e-05
8.40326e-05
8.09671e-05
3.00975e-05
3.00699e-05
7.8569e-05
3.00676e-05
8.09685e-05
7.85689e-05
8.40368e-05
3.51307e-05
6.80455e-05
3.5132e-05
8.40336e-05
8.09688e-05
3.00974e-05
3.00652e-05
7.85706e-05
3.00677e-05
7.85718e-05
8.09646e-05
8.40252e-05
3.51262e-05
6.80455e-05
8.4029e-05
3.51253e-05
8.09664e-05
3.00966e-05
3.00686e-05
7.85707e-05
8.09679e-05
3.00662e-05
7.85706e-05
8.40311e-05
3.51269e-05
6.80488e-05
3.51282e-05
8.40284e-05
8.34374e-05
8.34376e-05
8.34374e-05
8.34376e-05
2.90479e-05
2.90479e-05
2.89934e-05
2.90489e-05
2.9049e-05
2.90701e-05
2.90703e-05
2.75593e-05
2.78816e-05
2.78812e-05
2.83416e-05
2.78846e-05
2.78843e-05
2.756e-05
2.9048e-05
2.9048e-05
2.89927e-05
2.90488e-05
2.90484e-05
2.90703e-05
2.90703e-05
2.75592e-05
2.78814e-05
2.7881e-05
2.83414e-05
2.75599e-05
2.78844e-05
2.7884e-05
2.75604e-05
2.78823e-05
2.78828e-05
2.83425e-05
2.78857e-05
2.78852e-05
2.75611e-05
2.756e-05
2.83393e-05
2.78852e-05
2.78858e-05
2.78851e-05
2.78856e-05
2.75623e-05
2.75587e-05
2.83385e-05
2.78835e-05
2.7883e-05
2.75611e-05
2.78837e-05
2.78832e-05
2.75595e-05
2.78818e-05
2.78822e-05
2.83422e-05
2.78847e-05
2.78852e-05
2.75606e-05
2.75603e-05
2.7888e-05
2.78886e-05
2.83435e-05
2.78885e-05
2.75611e-05
2.7888e-05
2.75603e-05
2.78821e-05
2.78828e-05
2.83424e-05
2.78857e-05
2.78849e-05
2.7561e-05
2.90476e-05
2.90477e-05
2.89931e-05
2.90486e-05
2.90487e-05
2.90701e-05
2.90702e-05
2.90476e-05
2.90477e-05
2.89931e-05
2.90486e-05
2.90487e-05
2.90701e-05
2.90702e-05
2.90475e-05
2.90475e-05
2.8993e-05
2.90485e-05
2.90485e-05
2.907e-05
2.90701e-05
2.89933e-05
2.90481e-05
2.90481e-05
2.90486e-05
2.90488e-05
2.90711e-05
2.90709e-05
2.89926e-05
2.90484e-05
2.90483e-05
2.90484e-05
2.90483e-05
2.9071e-05
2.9071e-05
2.89926e-05
2.90482e-05
2.90483e-05
2.90483e-05
2.90483e-05
2.9071e-05
2.9071e-05
2.89924e-05
2.90484e-05
2.90484e-05
2.90484e-05
2.90484e-05
2.90711e-05
2.90711e-05
2.80744e-05
2.73178e-05
2.8222e-05
2.75939e-05
2.7318e-05
2.82215e-05
2.80796e-05
2.78273e-05
2.76894e-05
2.97097e-05
2.72386e-05
2.76919e-05
2.72415e-05
2.78262e-05
2.78287e-05
2.72401e-05
2.97121e-05
2.76906e-05
2.76907e-05
2.72411e-05
2.78299e-05
2.80778e-05
2.75954e-05
2.73166e-05
2.82192e-05
2.73193e-05
2.82233e-05
2.80767e-05
2.80742e-05
2.82219e-05
2.7594e-05
2.73178e-05
2.82214e-05
2.7318e-05
2.80795e-05
2.78273e-05
2.76895e-05
2.72389e-05
2.97105e-05
2.72418e-05
2.78262e-05
2.76921e-05
2.80777e-05
2.75954e-05
2.82191e-05
2.73166e-05
2.82232e-05
2.73193e-05
2.80766e-05
2.78288e-05
2.72402e-05
2.9713e-05
2.76905e-05
2.72412e-05
2.78298e-05
2.76907e-05
2.75618e-05
2.83388e-05
2.78838e-05
2.78834e-05
2.78834e-05
2.7883e-05
2.75617e-05
2.90499e-05
2.90496e-05
2.8994e-05
2.90499e-05
2.90498e-05
2.90707e-05
2.90707e-05
2.90494e-05
2.90496e-05
2.89936e-05
2.90493e-05
2.90496e-05
2.90706e-05
2.90706e-05
2.90498e-05
2.905e-05
2.89937e-05
2.905e-05
2.90499e-05
2.90708e-05
2.90708e-05
2.80743e-05
2.75952e-05
2.73197e-05
2.8223e-05
2.73191e-05
2.82213e-05
2.8078e-05
2.78273e-05
2.7689e-05
2.72386e-05
2.97097e-05
2.78262e-05
2.76916e-05
2.72417e-05
2.80777e-05
2.75954e-05
2.73165e-05
2.8219e-05
2.80766e-05
2.73193e-05
2.82231e-05
2.78282e-05
2.72415e-05
2.97122e-05
2.7692e-05
2.76914e-05
2.72414e-05
2.78304e-05
2.80741e-05
2.75946e-05
2.82213e-05
2.73168e-05
2.8221e-05
2.73186e-05
2.80794e-05
2.78271e-05
2.76886e-05
2.72386e-05
2.97103e-05
2.7826e-05
2.76912e-05
2.72412e-05
2.80776e-05
2.75954e-05
2.82189e-05
2.73165e-05
2.80765e-05
2.82229e-05
2.73193e-05
2.78288e-05
2.72394e-05
2.97125e-05
2.76886e-05
2.76904e-05
2.7241e-05
2.78292e-05
2.75617e-05
2.83387e-05
2.78845e-05
2.78841e-05
2.78833e-05
2.78829e-05
2.75617e-05
2.80739e-05
2.82219e-05
2.75944e-05
2.73172e-05
2.73175e-05
2.82214e-05
2.8079e-05
2.78267e-05
2.76891e-05
2.72371e-05
2.97108e-05
2.72398e-05
2.78257e-05
2.76917e-05
2.80774e-05
2.75959e-05
2.73161e-05
2.82195e-05
2.73188e-05
2.82234e-05
2.80764e-05
2.7828e-05
2.72377e-05
2.97137e-05
2.769e-05
2.72391e-05
2.78291e-05
2.76903e-05
2.80742e-05
2.73176e-05
2.82225e-05
2.75946e-05
2.73179e-05
2.8222e-05
2.80794e-05
2.78271e-05
2.76892e-05
2.97122e-05
2.72384e-05
2.72406e-05
2.76917e-05
2.7826e-05
2.78284e-05
2.72389e-05
2.97143e-05
2.76904e-05
2.72401e-05
2.78295e-05
2.76906e-05
2.80777e-05
2.7596e-05
2.73166e-05
2.822e-05
2.73193e-05
2.82239e-05
2.80767e-05
2.80777e-05
2.82242e-05
2.75965e-05
2.73198e-05
2.80765e-05
2.73198e-05
2.82245e-05
2.78226e-05
2.769e-05
2.72366e-05
2.97128e-05
2.72376e-05
2.78279e-05
2.76903e-05
2.80791e-05
2.75948e-05
2.73177e-05
2.82214e-05
2.73177e-05
2.82208e-05
2.80803e-05
2.7826e-05
2.72401e-05
2.76924e-05
2.97109e-05
2.78248e-05
2.72392e-05
2.76922e-05
2.8078e-05
2.73201e-05
2.82246e-05
2.75967e-05
2.80769e-05
2.73201e-05
2.82248e-05
2.7823e-05
2.76907e-05
2.97137e-05
2.7238e-05
2.72388e-05
2.76909e-05
2.78283e-05
2.78264e-05
2.72413e-05
2.76934e-05
2.97118e-05
2.78253e-05
2.72404e-05
2.76929e-05
2.80793e-05
2.75949e-05
2.73185e-05
2.82216e-05
2.73185e-05
2.82208e-05
2.80806e-05
2.75629e-05
2.83397e-05
2.78843e-05
2.78848e-05
2.78845e-05
2.7884e-05
2.75628e-05
2.75602e-05
2.83435e-05
2.78874e-05
2.78879e-05
2.78872e-05
2.75622e-05
2.78878e-05
2.80743e-05
2.82226e-05
2.73175e-05
2.75944e-05
2.82221e-05
2.73178e-05
2.80795e-05
2.78269e-05
2.76887e-05
2.97109e-05
2.72382e-05
2.76912e-05
2.72407e-05
2.78259e-05
2.78283e-05
2.72387e-05
2.97131e-05
2.76902e-05
2.76902e-05
2.72399e-05
2.78294e-05
2.80777e-05
2.75958e-05
2.822e-05
2.73165e-05
2.82239e-05
2.73192e-05
2.80767e-05
2.80783e-05
2.73204e-05
2.82244e-05
2.75962e-05
2.80771e-05
2.73204e-05
2.82248e-05
2.78237e-05
2.76894e-05
2.97122e-05