/*--------------------------------*- C++ -*----------------------------------*\
| =========                 |                                                 |
| \\      /  F ield         | OpenFOAM: The Open Source CFD Toolbox           |
|  \\    /   O peration     | Version:  v1912                                 |
|   \\  /    A nd           | Website:  www.openfoam.com                      |
|    \\/     M anipulation  |                                                 |
\*---------------------------------------------------------------------------*/
FoamFile
{
    version     2.0;
    format      ascii;
    class       volScalarField;
    location    "20";
    object      nut;
}
// * * * * * * * * * * * * * * * * * * * * * * * * * * * * * * * * * * * * * //

dimensions      [0 2 -1 0 0 0 0];


internalField   nonuniform List<scalar> 
57566
(
2.58497e-05
0.000117677
0.000209227
0.000220627
6.00699e-05
0.000189118
3.59859e-05
3.59794e-05
2.58535e-05
2.58525e-05
0.000189027
3.59764e-05
3.59786e-05
4.93172e-05
4.88689e-05
4.93166e-05
4.88711e-05
0.000117668
0.000209218
6.00472e-05
0.000220625
0.000117668
0.000209217
6.00503e-05
0.000220625
2.58536e-05
0.000189032
3.59799e-05
3.59763e-05
2.58539e-05
4.93408e-05
4.88623e-05
0.0001177
0.000209207
0.000220623
6.00708e-05
4.93257e-05
4.88672e-05
0.000117688
0.00020923
6.00509e-05
0.000220628
4.93451e-05
4.88627e-05
0.000117707
0.000209207
0.000220623
6.00644e-05
0.000117698
0.00020921
0.000220626
6.00751e-05
4.93382e-05
4.88659e-05
0.000117662
0.000209233
6.00482e-05
0.000220631
4.93187e-05
4.8869e-05
0.000117707
0.000209209
0.000220625
6.00682e-05
4.9341e-05
4.88662e-05
0.000189165
3.59749e-05
3.59899e-05
2.58524e-05
2.58493e-05
0.000189028
3.59777e-05
3.59925e-05
2.58519e-05
0.000117701
0.00020922
0.000220626
6.00749e-05
4.93405e-05
4.88657e-05
4.93414e-05
4.88655e-05
0.000117688
0.000209227
0.000220627
6.00638e-05
0.000117709
0.00020922
0.000220625
6.0067e-05
4.93448e-05
4.88655e-05
4.93455e-05
4.88653e-05
2.58522e-05
2.58512e-05
0.000188981
3.59886e-05
3.59822e-05
2.58517e-05
2.58508e-05
2.58508e-05
2.81166e-05
2.32495e-05
2.32475e-05
2.32504e-05
2.32484e-05
2.81196e-05
5.55833e-05
4.7205e-05
3.59795e-05
9.14805e-05
9.14654e-05
4.72071e-05
5.5603e-05
5.55638e-05
4.71964e-05
3.59732e-05
9.14624e-05
9.14475e-05
4.71984e-05
5.5583e-05
2.58525e-05
2.58515e-05
2.81196e-05
2.32511e-05
2.32481e-05
2.81163e-05
2.32501e-05
2.32478e-05
5.56147e-05
4.72073e-05
9.14794e-05
3.59829e-05
5.55983e-05
4.72055e-05
9.14977e-05
5.55892e-05
4.71976e-05
9.1463e-05
3.59831e-05
5.55675e-05
4.71959e-05
9.14799e-05
3.89802e-05
4.30244e-05
4.3128e-05
4.93333e-05
3.8982e-05
4.30238e-05
4.31406e-05
2.19769e-05
3.28657e-05
4.88681e-05
2.19784e-05
3.28696e-05
3.89821e-05
4.30242e-05
4.31319e-05
4.93325e-05
3.89839e-05
4.30236e-05
4.31437e-05
2.19782e-05
3.28791e-05
4.88701e-05
2.19795e-05
3.28822e-05
2.58527e-05
2.81186e-05
2.3249e-05
2.32505e-05
2.81156e-05
2.32483e-05
2.32498e-05
5.55873e-05
4.71979e-05
9.14597e-05
3.59834e-05
9.14754e-05
5.55673e-05
4.71963e-05
5.56169e-05
4.72065e-05
9.14835e-05
3.5981e-05
5.55983e-05
4.72048e-05
9.14983e-05
2.58529e-05
3.8981e-05
4.93233e-05
4.30227e-05
4.31434e-05
4.30238e-05
4.3128e-05
3.89791e-05
2.19774e-05
3.28703e-05
4.88644e-05
3.28642e-05
2.19763e-05
3.89819e-05
4.31344e-05
4.30243e-05
4.93415e-05
3.89838e-05
4.31466e-05
4.30233e-05
2.19785e-05
3.28779e-05
4.88664e-05
2.19798e-05
3.28811e-05
3.89781e-05
4.30228e-05
4.31463e-05
4.93524e-05
3.89792e-05
4.30222e-05
4.3153e-05
2.19738e-05
3.28715e-05
4.88614e-05
2.19756e-05
3.28786e-05
3.89822e-05
4.93186e-05
4.30219e-05
4.31476e-05
4.30234e-05
4.31331e-05
3.89806e-05
2.19789e-05
3.288e-05
4.88679e-05
3.28751e-05
2.19778e-05
3.89826e-05
4.31329e-05
4.30233e-05
4.93349e-05
3.89844e-05
4.3145e-05
4.30227e-05
2.19791e-05
3.28795e-05
4.88679e-05
2.19804e-05
3.28828e-05
3.89798e-05
4.30217e-05
4.31511e-05
4.93484e-05
3.89806e-05
4.30215e-05
4.31577e-05
2.19753e-05
3.28811e-05
4.88651e-05
2.1977e-05
3.28878e-05
2.81162e-05
2.32469e-05
2.32494e-05
2.32479e-05
2.32504e-05
2.81192e-05
5.55568e-05
4.71944e-05
3.59691e-05
9.1467e-05
4.71967e-05
9.14517e-05
5.55772e-05
5.55825e-05
4.72048e-05
3.59844e-05
9.14996e-05
9.1485e-05
4.72071e-05
5.56031e-05
2.58534e-05
2.58478e-05
2.81253e-05
2.32463e-05
2.32488e-05
2.81213e-05
2.3245e-05
2.32475e-05
5.55811e-05
4.71943e-05
9.14758e-05
3.59822e-05
9.14907e-05
5.55683e-05
4.71933e-05
5.56071e-05
4.72047e-05
9.15085e-05
3.59969e-05
5.55942e-05
4.72037e-05
9.15236e-05
2.58505e-05
3.89824e-05
4.9323e-05
4.31479e-05
4.30227e-05
4.31336e-05
4.30237e-05
3.89808e-05
2.1979e-05
3.28799e-05
4.88678e-05
3.2875e-05
2.19779e-05
3.8984e-05
4.93232e-05
4.31502e-05
4.30226e-05
4.31357e-05
4.30237e-05
3.89823e-05
2.19798e-05
3.28812e-05
4.88677e-05
3.28765e-05
2.19787e-05
3.898e-05
4.31512e-05
4.30228e-05
4.9352e-05
3.89808e-05
4.31576e-05
4.30221e-05
2.19754e-05
3.28809e-05
4.88647e-05
2.19771e-05
3.28876e-05
3.89815e-05
4.31536e-05
4.30227e-05
4.9353e-05
3.89823e-05
4.31602e-05
4.30221e-05
2.19762e-05
3.28823e-05
4.88646e-05
2.1978e-05
3.28889e-05
2.58533e-05
2.58523e-05
2.81255e-05
2.32489e-05
2.32469e-05
2.81216e-05
2.32476e-05
2.32456e-05
5.5606e-05
4.7205e-05
9.14902e-05
3.59932e-05
5.55938e-05
9.15042e-05
4.7204e-05
5.55862e-05
4.71967e-05
9.14725e-05
3.59867e-05
5.55742e-05
9.14874e-05
4.71955e-05
2.58503e-05
2.58493e-05
0.000226418
0.00022915
0.00022915
0.000230093
0.000226417
0.000229149
0.00022915
0.000230092
0.000226425
0.000229156
0.000229158
0.0002301
0.00022642
0.00022915
0.000229151
0.000230094
0.000226418
0.00022915
0.00022915
0.000230093
0.000226416
0.000229149
0.00022915
0.000230092
0.000171015
0.000117651
0.000178252
0.000107868
0.000178162
0.000107838
0.000171127
0.000153111
8.50368e-05
6.00555e-05
0.000125963
0.000125911
8.50073e-05
0.00015321
0.000109201
0.000188964
0.000154426
0.00015441
0.000154371
0.000154354
0.000109227
0.000109242
0.000189164
0.000154416
0.000154406
0.000109216
0.000154464
0.000154456
0.000171111
0.000107862
0.000178206
0.000117692
0.000170984
0.000107889
0.00017828
0.000153216
8.50173e-05
0.000125925
6.00607e-05
0.000125973
0.000153105
8.5043e-05
0.000171114
0.000107866
0.000178209
0.000117692
0.000170987
0.000107891
0.000178281
0.000153217
8.50228e-05
0.000125921
6.00654e-05
0.000153107
8.5048e-05
0.000125971
0.000109244
0.000189169
0.000154407
0.000154422
0.000154454
0.000109219
0.000154471
0.000171009
0.000117675
0.00017829
0.000107877
0.000178205
0.000107848
0.000171122
0.00015309
8.50402e-05
6.00504e-05
0.000125962
8.50126e-05
0.000153191
0.000125911
0.000171113
0.000107867
0.000178226
0.000117714
0.000170984
0.000107893
0.000178299
0.000153219
8.50235e-05
0.000125922
6.0068e-05
0.000125973
0.000153108
8.50504e-05
0.000171105
0.000178206
0.000107866
0.000117732
0.000170989
0.00017828
0.000107892
0.000153172
8.50372e-05
0.000125942
6.00764e-05
0.000153064
8.50608e-05
0.000125992
0.000171018
0.000117675
0.00017829
0.000107886
0.000178207
0.000107855
0.00017113
0.000153104
8.5049e-05
6.00602e-05
0.000125982
0.000125933
8.50206e-05
0.000153205
0.000171116
0.000107865
0.000178211
0.000117687
0.000170985
0.000107894
0.000178285
0.000153226
8.5028e-05
0.000125934
6.00668e-05
0.000153114
0.000125983
8.5056e-05
0.000171114
0.000178216
0.000107874
0.000117732
0.000170997
0.000178289
0.000107903
0.000153185
8.50445e-05
0.000125963
6.00799e-05
0.000153078
8.50691e-05
0.000126012
0.000109207
0.000189016
0.000154462
0.000154479
0.000154434
0.000154415
0.000109232
0.000109219
0.000189165
0.000154434
0.000154452
0.000154482
0.000109192
0.000154499
0.000171015
0.000117676
0.000178285
0.000107888
0.000178203
0.000107857
0.000171128
0.000153102
8.50504e-05
6.00586e-05
0.000125971
0.000125921
8.50246e-05
0.000153204
0.000171107
0.000178172
0.000107856
0.000117714
0.000170989
0.000178248
0.000107885
0.000153185
8.50232e-05
0.000125928
6.00744e-05
0.000153077
0.000125978
8.50486e-05
0.000171111
0.00017821
0.000107876
0.000117735
0.000170993
0.000178283
0.000107904
0.000153183
8.50432e-05
0.000125951
6.00779e-05
0.000153074
8.50648e-05
0.000126
0.000109209
0.000189119
0.00015437
0.000154365
0.000109184
0.000154421
0.000154413
2.58496e-05
2.58476e-05
0.00018874
3.5956e-05
3.59454e-05
4.92173e-05
4.88822e-05
4.92188e-05
0.000117357
0.000209044
5.99286e-05
0.000220524
0.000117365
0.000220532
4.9224e-05
4.88791e-05
0.000117358
0.00020904
5.9918e-05
0.000220516
4.92211e-05
4.88759e-05
0.000117359
0.000209034
0.000220515
5.99144e-05
2.58459e-05
0.000188746
3.5943e-05
3.59581e-05
2.58484e-05
0.000117349
0.000209062
0.000220522
5.99259e-05
0.000117358
0.000220533
4.92191e-05
4.88796e-05
4.92235e-05
2.58496e-05
2.58476e-05
2.81212e-05
2.32439e-05
2.32414e-05
2.81205e-05
2.32441e-05
2.32417e-05
5.54813e-05
4.72179e-05
9.12364e-05
3.59545e-05
5.54858e-05
4.72174e-05
9.12624e-05
5.54455e-05
4.72042e-05
9.11836e-05
3.59431e-05
5.54526e-05
4.72035e-05
9.12116e-05
3.89861e-05
4.3037e-05
4.30517e-05
4.92235e-05
3.89863e-05
4.30364e-05
4.30561e-05
2.19711e-05
3.28689e-05
4.88815e-05
2.19716e-05
3.28712e-05
3.89882e-05
4.30364e-05
4.30609e-05
4.92251e-05
3.89882e-05
4.30356e-05
4.3064e-05
3.89878e-05
4.30612e-05
4.30364e-05
4.92287e-05
3.89879e-05
4.30644e-05
4.30359e-05
2.19725e-05
3.28791e-05
4.88783e-05
2.19728e-05
3.28805e-05
3.89852e-05
4.30374e-05
4.30493e-05
4.92251e-05
3.89854e-05
4.3037e-05
4.30537e-05
2.19707e-05
3.28669e-05
4.88751e-05
2.19711e-05
3.28695e-05
2.5846e-05
2.81219e-05
2.32411e-05
2.32436e-05
2.81213e-05
2.32412e-05
2.32438e-05
5.54761e-05
4.72046e-05
9.12044e-05
3.59442e-05
9.12319e-05
5.54804e-05
4.72039e-05
5.55012e-05
4.72155e-05
9.12357e-05
3.59567e-05
5.55051e-05
4.72146e-05
9.12625e-05
2.58484e-05
3.89858e-05
4.30555e-05
4.30354e-05
4.92252e-05
3.89861e-05
4.30601e-05
4.30346e-05
2.19722e-05
3.28791e-05
4.88788e-05
2.19725e-05
3.28801e-05
3.89876e-05
4.30554e-05
4.3036e-05
4.92271e-05
3.89878e-05
4.30598e-05
4.30354e-05
0.000226366
0.000229134
0.000229126
0.000230082
0.000229138
0.000230084
0.000226362
0.000229127
0.000229129
0.000230081
0.000229138
0.000230086
0.000108964
0.0001889
0.000154089
0.000154055
0.000108933
0.000154155
0.000154122
0.000170873
0.000107579
0.000177898
0.000117395
0.000170749
0.000107617
0.000178001
0.000152924
8.47963e-05
0.000125632
5.9956e-05
0.000125692
0.000152807
8.48355e-05
0.000170897
0.000107604
0.000177906
0.000117402
0.000170766
0.000107648
0.000178008
0.000170866
0.000107576
0.000177884
0.000117396
0.000170741
0.000107617
0.000177984
0.000152917
8.47908e-05
0.000125605
5.99486e-05
0.000125666
0.000152797
8.4828e-05
0.000170858
0.000177892
0.000107566
0.000117395
0.000170735
0.000177991
0.000107605
0.000152906
8.47818e-05
0.000125602
5.99453e-05
0.000152787
8.48212e-05
0.000125663
0.000108982
0.000188905
0.000154073
0.000154093
0.00015414
0.000108951
0.000154159
0.000170867
0.000177889
0.000107573
0.000117388
0.000170742
0.00017799
0.000107613
0.000152927
8.48008e-05
0.00012563
5.9955e-05
0.000152807
0.000125691
8.48398e-05
0.000170888
0.000177904
0.000107592
0.000117395
0.000170758
0.000178004
0.000107636
0.000226363
0.000209066
0.00020905
0.000188739
0.000226363
0.000209064
0.000209056
0.000188738
0.000209043
0.000209043
0.000209035
0.000209044
0.000188756
0.000188914
0.000209041
0.000209067
0.000209042
0.000209051
0.000209055
0.000209052
0.000188898
0.000188744
0.000209038
0.00020905
0.000188805
0.000209045
0.000209035
0.000209048
0.000188746
0.000209058
4.92305e-05
4.88826e-05
4.92216e-05
4.88798e-05
2.58486e-05
2.58484e-05
0.000226357
0.000226354
0.000226354
0.000226363
0.000226361
0.000226356
0.000226358
0.000117395
5.99251e-05
0.000220521
0.000209072
5.99467e-05
0.000220525
0.00011736
0.000117388
0.000220519
5.99282e-05
0.000209048
0.000220523
0.000117353
5.99484e-05
3.59613e-05
3.59545e-05
0.000188906
3.59653e-05
3.59584e-05
4.92293e-05
4.88819e-05
4.9218e-05
4.88811e-05
2.58486e-05
2.58485e-05
4.92355e-05
4.88798e-05
4.8878e-05
4.92262e-05
0.000226365
0.000226359
0.000226361
0.000117413
5.99246e-05
0.000220523
0.000209069
0.000117359
5.99472e-05
0.000220527
2.58461e-05
2.58457e-05
0.00011738
0.000220519
5.99265e-05
0.00020906
0.000117353
0.00022052
5.99473e-05
3.59611e-05
3.59544e-05
0.00018892
3.59618e-05
3.59552e-05
4.92302e-05
4.8883e-05
4.88813e-05
4.92203e-05
0.000117395
5.99316e-05
0.000220515
0.000209039
0.000220518
0.000117363
5.99448e-05
0.000117398
5.99308e-05
0.000220515
0.000209049
5.9951e-05
0.000220519
0.000117364
4.92333e-05
4.88809e-05
4.92298e-05
4.88797e-05
4.92339e-05
4.88818e-05
4.8881e-05
4.92295e-05
0.000117389
0.000209037
5.99473e-05
0.000220515
0.000220515
0.000117398
5.99415e-05
0.000117391
0.000209046
5.9949e-05
0.000220519
5.99472e-05
0.000220517
0.000117401
3.59548e-05
3.59506e-05
0.000188921
3.59585e-05
3.59553e-05
2.58493e-05
2.58489e-05
2.58485e-05
2.58491e-05
0.000188813
3.59586e-05
3.59552e-05
3.59581e-05
3.59542e-05
2.58492e-05
2.58495e-05
4.92296e-05
4.88815e-05
4.88798e-05
4.92192e-05
0.000117397
0.000220516
5.99299e-05
0.000209047
0.00022052
5.99507e-05
0.000117363
4.92294e-05
4.88799e-05
4.88782e-05
4.92189e-05
0.000117391
0.000209072
5.99464e-05
0.000220523
5.99426e-05
0.000220526
0.000117387
4.92318e-05
4.88802e-05
4.88797e-05
4.92297e-05
0.000117391
0.000209045
0.000220519
5.99489e-05
0.000220518
5.99466e-05
0.000117399
4.92314e-05
4.88787e-05
4.8878e-05
4.92292e-05
0.000117396
0.000220516
5.99259e-05
0.000209057
0.000220519
5.99465e-05
0.000117362
4.92288e-05
4.88794e-05
4.92183e-05
4.88775e-05
4.92332e-05
4.88795e-05
4.88778e-05
4.92241e-05
0.000117384
0.000209048
0.00022052
5.99478e-05
0.000220523
0.000117381
5.99436e-05
0.000117391
0.000209055
0.00022052
5.99445e-05
0.000220519
5.99425e-05
0.000117399
4.92309e-05
4.8878e-05
4.9229e-05
4.88773e-05
4.92359e-05
4.88783e-05
4.88776e-05
4.92332e-05
2.58484e-05
2.58482e-05
2.58474e-05
2.58472e-05
0.0001888
3.59653e-05
3.59585e-05
3.59649e-05
3.59582e-05
2.58483e-05
2.58488e-05
2.58473e-05
2.58478e-05
2.58491e-05
2.58494e-05
2.58479e-05
2.58475e-05
3.59552e-05
3.59475e-05
0.000188905
3.596e-05
3.59498e-05
4.92304e-05
4.88822e-05
4.92314e-05
4.88824e-05
0.000117385
5.99442e-05
0.000220521
0.000209041
0.000117394
5.99497e-05
0.000220521
0.000117392
5.99453e-05
0.000220526
0.000209052
0.000117396
5.99509e-05
0.000220526
3.59584e-05
3.59541e-05
0.000188931
3.59564e-05
3.59539e-05
2.58498e-05
2.58493e-05
0.000117391
5.99232e-05
0.000220514
0.000209038
5.99406e-05
0.000220514
0.000117368
4.92327e-05
4.88763e-05
4.88747e-05
4.92241e-05
0.00011739
0.000220512
5.99174e-05
0.00020903
0.000220513
5.99372e-05
0.000117364
4.92259e-05
4.88799e-05
4.92323e-05
4.8881e-05
0.000117415
0.000220523
5.99447e-05
0.000209051
0.000117394
0.000220526
5.99481e-05
4.92254e-05
4.88791e-05
4.92319e-05
4.88794e-05
3.59434e-05
3.5958e-05
0.000188909
3.59475e-05
3.59621e-05
2.58484e-05
2.58483e-05
0.000117386
0.000220528
5.99402e-05
0.00020906
0.000117393
0.000220528
5.99454e-05
4.92309e-05
4.88778e-05
4.92315e-05
4.88784e-05
4.92342e-05
4.88787e-05
4.92365e-05
4.88789e-05
2.58489e-05
2.58484e-05
2.58479e-05
2.58474e-05
3.89863e-05
4.30354e-05
4.92257e-05
4.30624e-05
4.30356e-05
4.30586e-05
3.89854e-05
2.19709e-05
3.28681e-05
4.88805e-05
3.2872e-05
2.19714e-05
3.8986e-05
4.92384e-05
4.30366e-05
4.3054e-05
4.3035e-05
4.30682e-05
3.89863e-05
2.19717e-05
3.28725e-05
4.88806e-05
3.28688e-05
2.19713e-05
2.58486e-05
2.58486e-05
2.81228e-05
2.32438e-05
2.32418e-05
2.32438e-05
2.32418e-05
2.81243e-05
5.55101e-05
9.12322e-05
3.59671e-05
4.72152e-05
9.12675e-05
4.72134e-05
5.5503e-05
5.54903e-05
9.12135e-05
3.59602e-05
4.72065e-05
9.12481e-05
4.72049e-05
5.54836e-05
5.55105e-05
4.72139e-05
3.59632e-05
9.12572e-05
9.12422e-05
4.72145e-05
5.55179e-05
5.54909e-05
4.72053e-05
3.59564e-05
9.12372e-05
9.12233e-05
4.72059e-05
5.54978e-05
2.81254e-05
2.32438e-05
2.32418e-05
2.3244e-05
2.3242e-05
2.81235e-05
3.89867e-05
4.92243e-05
4.30361e-05
4.30615e-05
4.30362e-05
4.30581e-05
3.89858e-05
2.19712e-05
3.287e-05
4.888e-05
2.19716e-05
3.28739e-05
3.89861e-05
4.92352e-05
4.30367e-05
4.30541e-05
3.89865e-05
4.30351e-05
4.30682e-05
2.19721e-05
3.28734e-05
4.88814e-05
3.28697e-05
2.19715e-05
2.58488e-05
2.58487e-05
3.89882e-05
4.30705e-05
4.30358e-05
4.92316e-05
4.30673e-05
4.30357e-05
3.89874e-05
2.19724e-05
4.88773e-05
3.288e-05
3.28835e-05
2.19727e-05
2.19732e-05
3.28831e-05
4.88783e-05
3.28798e-05
2.19728e-05
3.89877e-05
4.92428e-05
4.30628e-05
4.30362e-05
4.30764e-05
4.30348e-05
3.89879e-05
2.58462e-05
2.58461e-05
2.81231e-05
2.32439e-05
2.32419e-05
2.3244e-05
2.3242e-05
2.81234e-05
5.55102e-05
9.12354e-05
4.72152e-05
3.5967e-05
5.55029e-05
9.12803e-05
4.72135e-05
5.54896e-05
9.12158e-05
4.72065e-05
3.59603e-05
5.54827e-05
9.12596e-05
4.72049e-05
2.81255e-05
2.32438e-05
2.32418e-05
2.81236e-05
2.32443e-05
2.32423e-05
5.55109e-05
4.72142e-05
3.59632e-05
9.1278e-05
9.12584e-05
4.72145e-05
5.55072e-05
5.54905e-05
4.72057e-05
3.59566e-05
9.12589e-05
9.124e-05
4.72059e-05
5.54862e-05
3.89884e-05
4.30361e-05
4.30677e-05
4.92258e-05
4.30359e-05
4.30647e-05
3.89876e-05
2.19721e-05
4.88808e-05
3.28809e-05
3.28844e-05
2.19725e-05
2.1973e-05
3.28838e-05
4.88817e-05
3.28805e-05
2.19726e-05
3.89878e-05
4.92374e-05
4.30364e-05
4.30599e-05
4.30348e-05
4.3074e-05
3.8988e-05
3.89857e-05
4.30348e-05
4.9239e-05
4.30642e-05
3.8986e-05
4.3035e-05
4.30683e-05
2.19711e-05
3.28747e-05
4.88814e-05
2.19715e-05
3.28713e-05
3.8986e-05
4.92263e-05
4.30361e-05
4.30639e-05
3.89859e-05
4.30361e-05
4.30601e-05
2.19711e-05
3.28698e-05
4.88799e-05
2.19714e-05
3.28747e-05
3.89878e-05
4.30361e-05
4.30698e-05
4.92385e-05
3.89881e-05
4.30361e-05
4.3073e-05
2.19724e-05
4.88821e-05
3.28844e-05
3.28813e-05
2.19723e-05
2.19723e-05
3.28807e-05
4.88811e-05
2.19726e-05
3.28855e-05
3.89878e-05
4.92261e-05
4.30368e-05
4.30678e-05
4.30368e-05
4.30641e-05
3.89876e-05
2.81236e-05
2.32422e-05
2.32439e-05
2.32425e-05
2.32442e-05
2.8125e-05
5.54929e-05
9.12155e-05
3.59604e-05
4.72067e-05
4.72048e-05
9.12504e-05
5.5486e-05
5.55173e-05
9.12385e-05
3.59569e-05
4.72153e-05
9.12736e-05
4.72134e-05
5.55105e-05
5.54937e-05
4.72051e-05
3.59564e-05
9.12394e-05
4.72058e-05
9.12261e-05
5.55009e-05
5.55182e-05
4.72136e-05
3.59526e-05
9.12629e-05
9.12494e-05
4.72144e-05
5.55252e-05
2.81262e-05
2.32422e-05
2.3244e-05
2.32428e-05
2.32445e-05
2.81243e-05
2.58494e-05
2.58493e-05
2.58488e-05
2.58488e-05
2.81248e-05
2.32426e-05
2.32443e-05
2.81228e-05
2.32426e-05
2.32443e-05
5.5479e-05
9.12375e-05
3.59564e-05
4.72053e-05
9.1223e-05
4.72058e-05
5.55009e-05
5.55032e-05
9.12605e-05
3.59527e-05
4.72138e-05
4.72144e-05
9.12466e-05
5.5525e-05
5.54937e-05
4.72051e-05
9.12384e-05
3.59603e-05
9.12528e-05
5.54867e-05
4.72046e-05
5.55178e-05
4.72136e-05
9.12618e-05
3.59571e-05
5.5511e-05
4.72132e-05
9.12763e-05
2.81239e-05
2.32423e-05
2.3244e-05
2.32424e-05
2.32441e-05
2.81267e-05
2.58494e-05
2.58493e-05
3.89889e-05
4.30687e-05
4.30354e-05
4.92249e-05
4.30654e-05
4.30354e-05
3.89881e-05
2.1973e-05
4.88793e-05
3.28813e-05
3.28848e-05
2.19733e-05
2.19738e-05
3.28844e-05
4.88803e-05
3.2881e-05
2.19734e-05
3.89883e-05
4.92365e-05
4.30606e-05
4.30358e-05
4.30747e-05
4.30342e-05
3.89886e-05
3.8987e-05
4.30354e-05
4.30656e-05
4.92245e-05
4.30354e-05
4.30624e-05
3.89862e-05
2.19719e-05
4.88778e-05
3.2879e-05
3.28825e-05
2.19723e-05
2.19728e-05
3.28819e-05
4.88787e-05
3.28786e-05
2.19723e-05
3.89864e-05
4.92361e-05
4.30358e-05
4.30576e-05
4.30342e-05
4.30717e-05
3.89866e-05
3.89884e-05
4.30707e-05
4.30354e-05
4.92366e-05
3.89886e-05
4.3074e-05
4.30355e-05
2.19732e-05
4.88805e-05
3.2885e-05
3.28818e-05
2.19731e-05
2.19731e-05
3.28812e-05
4.88795e-05
2.19735e-05
3.28859e-05
3.89884e-05
4.92246e-05
4.30687e-05
4.30362e-05
4.30652e-05
4.30364e-05
3.89882e-05
3.89865e-05
4.30354e-05
4.30675e-05
4.92361e-05
3.89867e-05
4.30355e-05
4.30708e-05
2.19722e-05
4.88791e-05
3.28824e-05
3.28793e-05
2.19721e-05
2.1972e-05
3.28788e-05
4.88781e-05
2.19724e-05
3.28834e-05
3.89865e-05
4.9224e-05
4.30362e-05
4.30655e-05
4.30364e-05
4.30619e-05
3.89863e-05
3.89865e-05
4.3035e-05
4.9224e-05
4.30637e-05
4.30597e-05
4.3035e-05
3.89855e-05
2.1972e-05
3.28791e-05
4.88772e-05
3.28826e-05
2.19724e-05
3.89859e-05
4.92357e-05
4.30548e-05
4.30354e-05
4.30689e-05
4.30338e-05
3.89862e-05
2.19729e-05
3.28821e-05
4.88781e-05
3.28788e-05
2.19724e-05
3.89881e-05
4.30628e-05
4.30358e-05
4.92294e-05
4.30589e-05
4.30356e-05
3.89871e-05
2.19721e-05
4.88774e-05
3.28706e-05
3.28745e-05
2.19724e-05
2.1973e-05
3.2874e-05
4.88783e-05
3.28702e-05
2.19725e-05
3.89875e-05
4.9241e-05
4.30545e-05
4.30361e-05
4.30686e-05
4.30345e-05
3.89878e-05
3.89858e-05
4.3035e-05
4.92358e-05
4.30654e-05
3.89861e-05
4.30694e-05
4.30351e-05
2.19722e-05
3.28826e-05
4.88784e-05
3.28795e-05
2.19722e-05
3.89859e-05
4.92238e-05
4.30642e-05
4.30358e-05
4.30601e-05
4.3036e-05
3.89857e-05
2.19721e-05
3.28793e-05
4.88771e-05
2.19725e-05
3.28835e-05
3.89874e-05
4.30643e-05
4.30358e-05
4.92398e-05
3.89877e-05
4.30683e-05
4.30358e-05
2.19723e-05
4.88787e-05
3.28749e-05
3.28713e-05
2.19723e-05
2.19722e-05
3.28704e-05
4.88776e-05
2.19726e-05
3.28755e-05
3.89875e-05
4.92288e-05
4.30632e-05
4.30365e-05
4.3059e-05
4.30366e-05
3.89873e-05
2.58483e-05
2.58484e-05
2.58473e-05
2.58474e-05
2.8124e-05
2.32445e-05
2.32425e-05
2.8122e-05
2.32444e-05
2.32424e-05
5.5496e-05
9.1255e-05
3.59631e-05
4.72141e-05
5.55179e-05
9.12443e-05
4.72147e-05
5.54756e-05
9.12344e-05
3.59564e-05
4.72055e-05
5.54977e-05
9.12239e-05
4.72059e-05
5.55108e-05
4.72139e-05
9.12566e-05
3.59672e-05
5.55035e-05
9.12706e-05
4.72135e-05
5.54903e-05
4.72053e-05
9.12368e-05
3.59604e-05
5.54834e-05
9.12505e-05
4.72049e-05
2.8123e-05
2.32438e-05
2.32418e-05
2.81257e-05
2.3244e-05
2.3242e-05
2.58486e-05
2.58485e-05
2.58476e-05
2.58475e-05
2.58493e-05
2.58497e-05
2.58478e-05
2.58477e-05
2.81213e-05
2.32439e-05
2.32415e-05
2.3244e-05
2.32421e-05
2.81228e-05
5.54949e-05
9.12288e-05
3.59617e-05
4.72131e-05
4.72144e-05
9.12759e-05
5.54815e-05
5.54579e-05
9.12005e-05
3.59523e-05
4.72099e-05
4.72049e-05
9.12312e-05
5.54521e-05
5.54927e-05
4.72168e-05
3.59579e-05
9.12588e-05
4.72169e-05
5.55004e-05
9.12551e-05
5.54573e-05
4.72034e-05
3.5948e-05
9.12075e-05
4.72048e-05
5.5466e-05
9.12051e-05
2.81246e-05
2.32433e-05
2.32421e-05
2.32441e-05
2.32425e-05
2.81225e-05
3.89885e-05
4.92249e-05
4.30359e-05
4.30694e-05
4.30363e-05
4.30655e-05
3.89876e-05
2.19721e-05
3.28818e-05
4.88817e-05
2.19723e-05
3.28859e-05
3.89879e-05
4.92365e-05
4.30359e-05
4.30703e-05
4.30359e-05
3.89882e-05
4.30743e-05
2.19729e-05
3.28831e-05
4.88827e-05
3.28818e-05
2.19726e-05
2.81235e-05
2.32424e-05
2.32441e-05
2.32423e-05
2.32441e-05
2.81237e-05
5.54922e-05
9.12369e-05
4.72054e-05
3.59607e-05
4.72051e-05
5.54859e-05
9.12558e-05
5.55163e-05
9.12592e-05
4.72139e-05
3.59568e-05
9.12777e-05
5.55101e-05
4.72136e-05
2.8126e-05
2.32426e-05
2.32443e-05
2.32424e-05
2.81242e-05
2.32441e-05
5.54925e-05
4.7206e-05
3.5957e-05
9.12559e-05
4.72063e-05
9.12358e-05
5.54874e-05
5.55168e-05
4.72145e-05
3.59525e-05
9.12778e-05
9.12581e-05
4.72149e-05
5.55117e-05
2.58495e-05
2.58495e-05
3.89857e-05
4.30362e-05
4.30591e-05
4.92292e-05
4.30359e-05
4.30554e-05
3.89848e-05
2.19706e-05
4.88742e-05
3.28678e-05
3.28717e-05
2.1971e-05
2.19715e-05
3.28712e-05
4.88752e-05
3.28675e-05
2.1971e-05
3.89852e-05
4.9241e-05
4.30363e-05
4.3051e-05
4.30348e-05
4.30649e-05
3.89855e-05
3.8989e-05
4.92259e-05
4.30641e-05
4.30355e-05
4.30661e-05
4.30358e-05
3.89887e-05
2.19729e-05
3.28818e-05
4.88797e-05
3.28865e-05
2.19732e-05
3.89885e-05
4.92377e-05
4.3071e-05
4.30353e-05
4.30749e-05
3.89887e-05
4.30354e-05
2.19738e-05
3.28838e-05
4.88813e-05
3.28825e-05
2.19734e-05
3.89871e-05
4.92254e-05
4.30354e-05
4.30612e-05
4.30358e-05
4.30633e-05
3.89868e-05
2.19718e-05
3.28792e-05
4.88786e-05
2.19721e-05
3.28839e-05
3.89866e-05
4.92371e-05
4.30353e-05
4.30681e-05
3.89868e-05
4.30352e-05
4.3072e-05
2.19727e-05
3.28812e-05
4.88796e-05
3.28799e-05
2.19724e-05
2.81225e-05
2.32411e-05
2.32435e-05
2.32415e-05
2.32436e-05
2.81237e-05
5.54864e-05
9.12041e-05
3.59494e-05
4.72055e-05
4.72035e-05
9.12383e-05
5.54792e-05
5.55134e-05
9.12368e-05
3.59638e-05
4.7216e-05
9.12721e-05
4.72142e-05
5.55064e-05
5.54882e-05
4.72038e-05
3.5945e-05
9.12261e-05
4.72044e-05
9.12193e-05
5.54958e-05
5.55133e-05
4.72144e-05
3.596e-05
9.12576e-05
9.12509e-05
4.72152e-05
5.5521e-05
2.81252e-05
2.32413e-05
2.32435e-05
2.32417e-05
2.32435e-05
2.81234e-05
2.58484e-05
2.58484e-05
3.89865e-05
4.92253e-05
4.30649e-05
4.30349e-05
4.30606e-05
4.30354e-05
3.89855e-05
2.19719e-05
3.28796e-05
4.88777e-05
3.28839e-05
2.19722e-05
3.89859e-05
4.92371e-05
4.30658e-05
4.30349e-05
4.30701e-05
3.89863e-05
4.30349e-05
2.19728e-05
3.28831e-05
4.88788e-05
3.288e-05
2.19724e-05
3.8988e-05
4.92297e-05
4.30645e-05
4.30356e-05
4.30602e-05
4.30359e-05
3.89871e-05
2.19718e-05
3.28714e-05
4.88781e-05
2.19724e-05
3.28762e-05
3.89875e-05
4.92407e-05
4.30651e-05
4.30356e-05
3.89878e-05
4.30696e-05
4.30356e-05
2.19726e-05
3.2875e-05
4.88792e-05
3.28721e-05
2.19723e-05
2.58486e-05
2.58486e-05
2.58476e-05
2.58476e-05
0.000229122
0.00022912
0.000226365
0.000229123
0.000229122
0.000230077
0.000230077
0.00010897
0.000154099
0.000154088
0.000188917
0.000154175
0.000154166
0.000108945
0.000229125
0.000229123
0.000226364
0.000229132
0.000229124
0.00023008
0.000230078
0.000108969
0.000154098
0.000154086
0.000188915
0.000108944
0.000154173
0.000154163
0.000108981
0.000154098
0.000154113
0.000188932
0.00015419
0.000154174
0.000108956
0.000108948
0.000188777
0.000154178
0.000154194
0.000154125
0.000154141
0.000108995
0.000108936
0.000188763
0.000154165
0.000154154
0.000108983
0.000154117
0.000154106
0.00010896
0.000154099
0.000154081
0.00018892
0.000154178
0.000154151
0.000108937
0.000108982
0.000154154
0.00015417
0.000188941
0.000154219
0.000108956
0.000154204
0.000108974
0.000154089
0.000154108
0.000188922
0.000154183
0.000154164
0.000108949
0.000229117
0.000229116
0.000226359
0.000229118
0.000229118
0.000230072
0.000230072
0.000229116
0.000229115
0.000226357
0.000229117
0.000229119
0.000230072
0.000230072
0.000229116
0.000229116
0.000226357
0.000229117
0.000229118
0.000230073
0.000230072
0.000226365
0.000229124
0.000229122
0.000229121
0.000229123
0.000230077
0.000230077
0.000226358
0.000229125
0.000229122
0.000229123
0.000229119
0.000230073
0.000230074
0.000226355
0.000229121
0.00022912
0.000229118
0.000229119
0.000230073
0.000230073
0.000226355
0.000229124
0.000229126
0.000229123
0.000229124
0.000230077
0.000230078
0.000170724
0.00010762
0.000178006
0.000117371
0.000107591
0.000177928
0.000170879
0.00015293
0.00012564
5.99553e-05
8.47974e-05
0.000125711
8.48474e-05
0.000152825
0.000152847
8.48375e-05
5.9934e-05
0.000125703
0.00012565
8.48129e-05
0.000152951
0.000170859
0.00011741
0.000107581
0.000177903
0.000107631
0.000178021
0.000170746
0.000170716
0.000177999
0.000117365
0.00010761
0.00017792
0.000107582
0.000170869
0.000152922
0.000125637
8.47977e-05
5.99578e-05
8.48459e-05
0.00015282
0.000125709
0.000170849
0.000117404
0.000177895
0.000107573
0.000178013
0.000107623
0.000170737
0.000152842
8.48346e-05
5.99359e-05
0.000125697
8.48115e-05
0.000152943
0.000125645
0.000108958
0.000188771
0.000154168
0.000154158
0.000154116
0.000154105
0.000108987
0.000229134
0.000229128
0.000226368
0.000229135
0.000229131
0.00023008
0.000230079
0.000229125
0.000229127
0.00022636
0.000229125
0.000229127
0.000230079
0.000230077
0.000229134
0.000229136
0.000226364
0.000229136
0.000229135
0.000230082
0.000230083
0.000170723
0.000117382
0.000107634
0.000178017
0.0001076
0.000177926
0.00017086
0.000152929
0.000125638
8.47977e-05
5.99545e-05
0.000152825
0.000125709
8.48481e-05
0.000170859
0.000117409
0.000107581
0.000177901
0.000170745
0.000107631
0.000178018
0.000152842
8.48459e-05
5.99331e-05
0.000125713
0.000125656
8.48149e-05
0.000152958
0.000170715
0.00011737
0.000177992
0.000107603
0.000177917
0.000107587
0.000170871
0.000152922
0.000125631
8.47956e-05
5.99565e-05
0.000152818
0.000125703
8.48425e-05
0.000170849
0.000117404
0.000177893
0.000107572
0.000170737
0.000178009
0.000107622
0.000152844
8.48309e-05
5.99356e-05
0.000125682
0.000125645
8.48108e-05
0.000152941
0.000108958
0.00018877
0.000154174
0.000154164
0.000154115
0.000154104
0.000108986
0.000170714
0.000177999
0.000117371
0.00010761
0.000107582
0.000177922
0.000170867
0.000152915
0.000125631
8.47876e-05
5.99582e-05
8.48345e-05
0.000152814
0.000125697
0.000170849
0.000117412
0.000107575
0.0001779
0.000107623
0.000178016
0.000170738
0.000152833
8.48191e-05
5.99338e-05
0.00012567
8.47982e-05
0.000152932
0.000125623
0.000170718
0.000107613
0.000178007
0.000117373
0.000107586
0.000177929
0.000170873
0.000152913
0.000125621
5.99605e-05
8.47877e-05
8.48335e-05
0.000125692
0.00015281
0.000152833
8.4822e-05
5.99395e-05
0.000125684
8.47992e-05
0.000152937
0.000125632
0.000170853
0.000117411
0.000107576
0.000177906
0.000107626
0.000178021
0.00017074
0.000170855
0.000177953
0.000117416
0.0001076
0.000170742
0.000107629
0.000178026
0.000152781
0.000125683
8.48167e-05
5.99356e-05
8.47922e-05
0.000152926
0.000125636
0.00017077
0.000117375
0.000107616
0.000177993
0.000107585
0.000177912
0.000170879
0.000152906
8.48064e-05
0.000125639
5.9957e-05
0.000152797
8.4831e-05
0.000125701
0.000170859
0.000107603
0.000177958
0.000117419
0.000170747
0.000107633
0.000178029
0.000152783
0.000125688
5.99375e-05
8.48185e-05
8.47934e-05
0.000125636
0.000152929
0.000152909
8.48095e-05
0.000125656
5.99596e-05
0.000152803
8.48333e-05
0.000125704
0.000170773
0.000117377
0.000107622
0.000177996
0.000107591
0.000177912
0.000170883
0.000108969
0.000188785
0.000154168
0.000154183
0.000154129
0.000154114
0.000108999
0.00010898
0.000188942
0.000154146
0.000154162
0.000154194
0.000108964
0.000154209
0.000170719
0.000178011
0.000107612
0.000117374
0.000177932
0.000107584
0.000170873
0.000152915
0.00012563
5.99596e-05
8.47878e-05
0.000125701
8.48352e-05
0.000152811
0.000152835
8.48229e-05
5.99387e-05
0.000125694
0.000125641
8.47998e-05
0.000152939
0.000170852
0.000117411
0.000177908
0.000107574
0.000178024
0.000107624
0.00017074
0.000170867
0.000107609
0.00017796
0.000117417
0.000170753
0.000107639
0.000178033
0.0001528
0.000125692
5.99338e-05