/*--------------------------------*- C++ -*----------------------------------*\
| =========                 |                                                 |
| \\      /  F ield         | OpenFOAM: The Open Source CFD Toolbox           |
|  \\    /   O peration     | Version:  v1912                                 |
|   \\  /    A nd           | Website:  www.openfoam.com                      |
|    \\/     M anipulation  |                                                 |
\*---------------------------------------------------------------------------*/
FoamFile
{
    version     2.0;
    format      ascii;
    class       surfaceScalarField;
    location    "20";
    object      phi;
}
// * * * * * * * * * * * * * * * * * * * * * * * * * * * * * * * * * * * * * //

dimensions      [0 3 -1 0 0 0 0];
oriented        oriented;


internalField   nonuniform List<scalar> 
166251
(
-4.05654e-09
-1.09021e-08
0.000114619
-0.000114604
-1.36467e-09
4.6146e-08
0.000258933
-0.000258805
-1.7276e-07
-5.89495e-10
2.53514e-09
1.20796e-06
0.00107716
-1.55536e-09
-8.93705e-07
2.50427e-07
-2.52967e-07
8.93837e-07
-1.20553e-06
2.54263e-07
-2.55387e-07
-3.42588e-09
0.00107237
1.15572e-09
-9.64405e-07
7.81743e-07
-7.84076e-07
9.62751e-07
1.248e-08
3.03751e-08
0.000266476
-5.53928e-09
-0.000266409
-1.04626e-07
-1.24155e-06
-1.20808e-06
0.000264906
-0.000262906
2.22482e-07
2.27699e-07
-1.5141e-08
8.46966e-09
0.000314905
7.18256e-09
-0.000314872
-3.34613e-08
-1.51121e-08
8.47077e-09
0.000314846
7.76733e-09
-0.000314816
-3.09947e-08
1.16668e-08
3.60546e-09
0.00011462
9.05976e-09
3.62363e-09
0.000114622
1.24701e-06
1.20579e-06
0.000262909
-2.17545e-07
-2.22758e-07
1.50807e-08
-1.01616e-08
3.39934e-08
0.00031487
1.52796e-08
-7.61818e-09
3.13906e-08
0.000314824
2.03932e-10
4.54814e-08
-1.58423e-08
-7.99263e-11
0.000252712
3.34987e-08
-2.90798e-09
0.000223227
4.55134e-08
-1.58116e-08
-1.03933e-10
0.000252753
3.11119e-08
-3.58029e-09
-2.93275e-09
0.000223283
1.57669e-09
5.96925e-10
1.69637e-07
0.000258817
3.30266e-09
-7.93343e-10
1.24952e-06
-2.63597e-07
2.59714e-07
8.94025e-07
-2.52938e-07
2.44905e-07
-8.99164e-07
0.00107673
4.52794e-09
1.08958e-07
0.000266409
4.0125e-09
1.43244e-09
9.68287e-07
-7.89492e-07
-9.6992e-07
7.87185e-07
0.00107271
-1.58628e-10
1.67135e-07
0.00025885
2.59611e-09
-1.25252e-06
3.76472e-09
8.9955e-07
-2.53122e-07
-9.02217e-07
2.50451e-07
1.25499e-06
-2.6652e-07
2.65343e-07
0.00107716
-1.2598e-08
4.58834e-09
1.06554e-07
0.000266422
6.31143e-09
9.712e-07
-7.89619e-07
-9.72826e-07
7.87289e-07
0.00107286
9.21803e-09
0.000114629
1.21093e-06
0.000262929
-2.20362e-07
-2.25099e-07
-7.14186e-09
3.40132e-08
0.00031481
-1.15635e-08
1.24174e-08
-1.05902e-08
3.13675e-08
0.000314927
3.61741e-09
0.00011463
-4.61098e-08
0.000252733
-0.000252702
1.4258e-08
1.67048e-10
-3.27487e-08
0.000223227
1.25884e-09
-0.000223199
0.000258931
-0.000258806
-1.72747e-07
-8.35589e-11
2.59091e-09
0.00107684
1.24692e-06
-1.23813e-09
-8.96629e-07
2.50371e-07
8.96601e-07
-2.53047e-07
-1.2445e-06
2.62534e-07
-2.63729e-07
0.00107258
1.25498e-09
-9.64583e-07
7.81789e-07
-7.81502e-07
9.65584e-07
0.000266417
1.50363e-08
-8.10963e-09
-0.000266352
-1.045e-07
4.80901e-08
3.64509e-10
-2.26686e-10
-1.34869e-08
0.000252741
3.11175e-08
-2.86159e-09
0.000223263
1.81945e-09
2.98893e-10
1.69593e-07
0.000258837
2.16707e-09
-1.31245e-09
1.21072e-06
-2.55481e-07
2.59778e-07
8.96668e-07
-2.47713e-07
2.53149e-07
-8.94092e-07
0.00107775
7.20484e-09
1.06406e-07
0.000266423
5.43914e-09
1.16959e-09
9.68233e-07
-7.84145e-07
-9.67323e-07
7.84502e-07
0.00107261
4.53294e-08
-1.33099e-08
2.67135e-11
0.000252701
3.32625e-08
-3.42002e-09
-3.00262e-09
0.0002232
1.69552e-07
1.61386e-10
0.000258808
2.61869e-09
-1.24453e-06
-1.29894e-09
8.96773e-07
-2.52939e-07
-8.96647e-07
2.50529e-07
1.24693e-06
-2.63731e-07
2.62571e-07
0.00107683
1.21504e-09
9.65679e-07
-7.81472e-07
-9.64588e-07
7.8185e-07
0.00107259
-1.50821e-08
7.04014e-09
1.06241e-07
0.000266352
4.60493e-08
0.000258941
-0.000258821
-1.67655e-07
-5.43227e-11
2.57417e-09
0.00107663
-1.25928e-09
-1.23913e-06
2.56929e-07
-2.58108e-07
-8.93924e-07
2.47552e-07
-2.50237e-07
8.93909e-07
0.00107258
1.25058e-09
-9.6455e-07
7.87175e-07
-7.86856e-07
9.65567e-07
3.0322e-08
0.000266466
-5.56751e-09
-0.000266401
-1.04535e-07
0.00025274
-0.000252711
1.6523e-08
2.14122e-10
0.000223239
4.02302e-09
1.25155e-09
-0.000223213
-4.53962e-08
1.73666e-09
8.06681e-10
1.69578e-07
0.000258846
2.59677e-09
-1.36169e-09
1.21333e-06
-2.58228e-07
2.57045e-07
8.94e-07
-2.50286e-07
-8.939e-07
2.47708e-07
0.0010775
-3.34378e-08
4.54781e-09
1.08863e-07
0.000266469
3.50529e-09
1.20778e-09
9.68271e-07
-7.86801e-07
-9.67292e-07
7.872e-07
0.00107264
3.25372e-10
4.54052e-11
-1.5738e-08
0.00025275
-2.87652e-09
0.000223274
-4.52665e-08
1.6701e-07
1.30415e-10
0.000258821
2.58783e-09
-1.23916e-06
-1.34215e-09
8.9402e-07
-2.5012e-07
-8.93886e-07
2.47717e-07
1.24156e-06
-2.58107e-07
2.56974e-07
0.00107663
1.20958e-09
9.65649e-07
-7.86833e-07
-9.64542e-07
7.87231e-07
0.00107258
-3.08743e-08
-1.522e-08
4.52982e-09
1.06274e-07
0.000266401
-1.56131e-08
-5.31353e-11
0.000252711
-3.42709e-09
-2.96717e-09
0.000223214
0.0002649
-0.000262893
2.20162e-07
2.27481e-07
0.000314803
7.21503e-09
-0.000314773
-3.33641e-08
8.46435e-09
0.000314908
7.20987e-09
-0.000314878
-3.34434e-08
0.000114628
-4.04075e-09
-0.000114615
1.14471e-08
0.000114604
1.20556e-06
0.000262893
-2.17763e-07
-2.25052e-07
-7.03665e-09
3.36543e-08
0.000314773
-8.93741e-09
1.25354e-08
-7.06795e-09
3.366e-08
0.000314878
3.43362e-09
0.000114615
4.87506e-08
0.000258962
-0.00025884
-1.72765e-07
4.38245e-10
2.53476e-09
0.00107768
-1.44383e-09
-1.20568e-06
2.54336e-07
-2.55496e-07
-8.94008e-07
2.50474e-07
-2.53063e-07
8.94133e-07
0.00107249
1.13941e-09
-9.61905e-07
7.81818e-07
-7.8148e-07
9.62904e-07
3.03677e-08
0.000266485
-5.4995e-09
-0.000266418
-1.07075e-07
-1.42878e-10
0.000252734
-0.000252702
-7.86681e-11
1.42846e-08
0.000223242
1.26594e-09
-0.000223216
0.000252774
-0.00025274
1.83853e-10
1.42816e-08
0.000223286
4.0084e-09
1.29426e-09
-0.000223261
1.3716e-09
-4.5239e-08
1.72027e-07
6.2142e-10
0.000258804
2.54469e-09
-1.59724e-09
1.20797e-06
-2.55393e-07
2.54297e-07
8.93939e-07
-2.52848e-07
-8.93673e-07
2.50582e-07
0.00107716
3.31948e-09
1.14564e-09
9.6551e-07
-7.81358e-07
-9.61725e-07
7.84513e-07
0.00107236
-3.08671e-08
4.54136e-09
1.06264e-07
0.000266409
-4.7844e-08
1.72061e-07
-4.2136e-10
0.00025884
2.5403e-09
-1.20571e-06
-1.53819e-09
8.94249e-07
-2.52941e-07
-8.93965e-07
2.5064e-07
1.20809e-06
-2.55496e-07
2.54381e-07
0.00107768
1.09429e-09
9.62996e-07
-7.81456e-07
-9.61881e-07
7.81897e-07
0.00107249
-3.08746e-08
-1.52108e-08
4.51279e-09
1.08741e-07
0.000266417
1.37831e-10
1.31003e-10
-1.32632e-08
0.000252702
-2.93533e-09
0.000223217
-1.4386e-10
-1.32677e-08
0.000252739
-3.43979e-09
-2.92911e-09
0.000223261
0.000114627
-0.000114615
0.000114632
-0.000114619
0.000262906
-2.20103e-07
-2.25278e-07
-8.97242e-09
-7.09728e-09
3.37551e-08
0.000314872
-8.96447e-09
-7.66969e-09
3.12449e-08
0.000314816
0.000114615
0.000114619
3.60528e-09
1.16371e-08
-5.68302e-09
-5.67942e-09
0.000249684
1.29693e-08
1.54099e-08
-9.53028e-05
-5.10422e-09
-4.32245e-09
9.53122e-05
-9.5293e-05
-5.11332e-09
-4.35226e-09
9.53025e-05
4.42218e-09
4.46366e-09
-1.25019e-08
-1.49292e-08
0.000249701
2.379e-08
-1.88144e-08
0.00024406
4.22321e-08
-0.000211423
-1.90259e-08
0.000211445
3.39879e-08
-7.18386e-09
-9.16307e-09
1.52836e-08
-0.00026483
2.29387e-08
0.000264877
-6.98973e-08
-3.35818e-08
6.94092e-08
3.54973e-08
0.000244094
-4.28618e-08
2.38241e-08
-1.66779e-08
0.000244008
4.25073e-08
-0.000211378
-1.6904e-08
0.000211398
3.14815e-08
-7.77643e-09
-9.14503e-09
1.52794e-08
-0.000264736
2.29909e-08
0.000264791
-7.49392e-08
-3.3632e-08
7.44015e-08
3.5544e-08
0.000244043
-4.31352e-08
-1.09759e-08
-4.06824e-09
0.000114636
-8.46814e-09
-3.93064e-09
0.000114634
-0.000249684
5.08595e-09
7.2896e-09
-9.91083e-09
-1.74585e-08
0.000249699
5.74252e-09
9.53075e-05
4.492e-09
5.59619e-09
9.52908e-05
4.36032e-09
1.55563e-08
1.54657e-08
-2.38847e-09
9.53149e-05
-6.22775e-09
9.53043e-05
-0.000244057
1.66383e-08
-2.01951e-08
-4.04184e-08
0.000244091
1.92302e-08
0.000211422
-2.6564e-08
0.000264828
7.19803e-08
3.81939e-08
7.73354e-09
-2.81034e-08
-1.23925e-08
0.000314892
4.25172e-08
0.000211444
-6.71059e-08
-3.09073e-08
0.000264877
-0.000244008
2.18994e-08
-2.83981e-08
-4.56973e-08
0.000244043
1.64656e-08
0.000211373
-2.366e-08
0.000264743
6.9342e-08
3.81483e-08
1.01582e-08
-3.62826e-08
-1.50271e-08
0.000314857
4.24221e-08
0.000211399
-8.05963e-08
-3.89135e-08
0.000264798
-0.00016984
4.61025e-10
-1.38643e-08
-9.31395e-11
0.000169853
6.11981e-10
0.000201892
2.13166e-11
-1.59103e-08
0.000249307
-4.86602e-10
4.64862e-08
1.64513e-08
1.46247e-10
8.67079e-11
-4.34409e-08
0.000252739
6.97254e-11
1.9177e-12
0.000201908
1.14365e-09
-4.73244e-08
0.000249339
-9.27277e-05
-1.18606e-08
9.27395e-05
-1.55784e-08
0.000302218
4.40037e-08
1.25162e-09
-3.27077e-08
0.000223254
-4.42419e-08
0.000302253
-0.000169924
4.54547e-10
-1.39979e-08
-3.42788e-11
0.000169937
6.35679e-10
0.000201933
-1.35759e-08
0.000249402
-5.13191e-10
4.65645e-08
1.65026e-08
2.12671e-10
-4.34701e-08
0.000252779
3.63908e-10
0.000201949
1.2055e-09
-4.74371e-08
0.000249435
-9.27798e-05
-1.20219e-08
9.27918e-05
-1.31228e-08
0.000302346
4.41867e-08
1.23192e-09
4.05924e-09
-3.036e-08
0.000223308
-4.43576e-08
0.000302381
-8.45836e-09
0.000114642
-0.000249694
5.08537e-09
5.11472e-09
-1.49138e-08
-1.25145e-08
0.000249712
5.70807e-09
9.52957e-05
4.43495e-09
5.70516e-09
9.53063e-05
4.40324e-09
1.54316e-08
1.30199e-08
-4.33882e-09
9.53051e-05
-4.27666e-09
9.53157e-05
-2.29538e-08
-0.000244012
1.90921e-08
-4.05729e-08
0.000244041
1.87905e-08
0.000211374
0.000264728
-2.38116e-08
3.55307e-08
7.20392e-08
-3.34633e-08
7.22599e-09
-1.24722e-08
0.00031484
-3.35743e-08
-7.25311e-08
0.000264778
3.99391e-08
0.000211396
-0.000244072
1.71868e-08
-2.55687e-08
-4.54871e-08
0.000244114
1.68387e-08
0.00021143
-2.6418e-08
0.000264877
7.45026e-08
3.55303e-08
1.05765e-08
-3.08735e-08
1.0923e-08
-1.2227e-08
0.000314949
4.48047e-08
0.000211453
-7.5059e-08
-3.35681e-08
0.000264929
-4.03482e-09
0.000114645
-5.9532e-10
1.57385e-08
0.000169834
1.08258e-10
-1.34452e-08
-2.97974e-10
4.55653e-08
-0.000201888
-3.97541e-10
0.000201903
-0.000249296
1.63417e-08
1.11985e-09
0.000249326
-4.73115e-08
-4.81168e-10
4.64103e-08
2.07234e-10
0.00016985
1.55002e-08
9.27258e-05
-0.00030221
1.43645e-08
0.000302242
-4.41563e-08
-2.96538e-09
3.34897e-08
4.40496e-08
9.27403e-05
-0.000169921
-1.40076e-08
5.2444e-10
-1.08893e-10
0.000169935
-1.36052e-08
0.000249399
-5.48476e-10
4.91653e-08
4.94989e-10
0.000201929
1.87062e-10
3.05643e-10
1.43355e-08
7.23922e-11
-4.884e-08
0.000252775
2.60956e-10
1.09228e-09
-5.00862e-08
0.000249434
1.41236e-10
0.000201944
-9.2782e-05
-1.2093e-08
9.27939e-05
-1.30528e-08
0.000302353
4.42208e-08
1.35598e-09
-3.01979e-08
0.000223288
-4.43952e-08
0.000302387
-0.000169835
3.11117e-10
-1.64435e-08
2.10505e-10
0.000169851
7.74968e-10
0.000201889
-1.55553e-08
0.000249296
-4.3609e-10
4.62126e-08
1.44417e-08
4.2988e-10
-4.62986e-08
0.000252733
3.33226e-10
0.000201904
1.16646e-09
-4.74876e-08
0.000249326
-9.27258e-05
-1.45632e-08
9.27405e-05
-1.49056e-08
0.00030221
4.34818e-08
1.20454e-09
4.11307e-09
-3.29599e-08
0.000223228
-4.4417e-08
0.000302242
-6.09149e-10
1.34987e-08
0.00016984
3.3925e-10
-1.57221e-08
-3.81831e-10
4.54979e-08
-0.000201888
-4.18125e-10
0.000201905
-0.000249303
1.40872e-08
1.21624e-09
0.000249338
-5.00405e-08
-5.89034e-10
4.9121e-08
4.94836e-12
0.000169853
1.31569e-08
9.27322e-05
-0.00030222
1.2012e-08
0.000302258
-4.69196e-08
-2.92809e-09
-3.60878e-09
3.11096e-08
4.67944e-08
9.27442e-05
-0.000169925
-1.3989e-08
5.49019e-10
-8.90279e-11
0.000169938
-1.35353e-08
0.000249407
-6.06375e-10
4.91066e-08
5.2108e-10
0.000201929
2.09929e-10
9.35813e-11
1.65407e-08
1.18397e-10
-4.61268e-08
0.00025278
3.0244e-10
1.17039e-09
-5.0047e-08
0.000249442
1.60419e-10
0.000201946
-9.27849e-05
-1.20617e-08
9.27969e-05
-1.30695e-08
0.000302367
4.6745e-08
1.31036e-09
-3.27666e-08
0.000223302
-4.6996e-08
0.000302404
-0.00016984
3.27368e-10
-1.42053e-08
9.55157e-12
0.000169854
7.96889e-10
0.000201889
-1.33354e-08
0.000249303
-5.30393e-10
4.89105e-08
1.67036e-08
5.03828e-10
-4.6223e-08
0.00025274
5.37513e-10
0.000201906
1.26294e-09
-5.02034e-08
0.000249338
-9.27322e-05
-1.21983e-08
9.27444e-05
-1.2539e-08
0.00030222
4.62137e-08
1.17512e-09
4.07697e-09
-3.05449e-08
0.000223239
-4.71556e-08
0.000302258
-5.65944e-09
-5.66672e-09
0.000249677
1.30063e-08
1.53341e-08
-9.52867e-05
-5.08763e-09
-4.3609e-09
9.52961e-05
-9.53045e-05
-5.11094e-09
-4.33525e-09
9.53139e-05
4.40623e-09
4.41045e-09
-1.25414e-08
-1.48397e-08
0.000249694
-1.87955e-08
2.37685e-08
0.000243991
4.47926e-08
-0.000211365
-1.91069e-08
0.000211387
-7.09697e-09
3.3921e-08
1.51303e-08
-0.000264692
2.29828e-08
0.000264747
-3.62445e-08
-7.50202e-08
3.81419e-08
7.45295e-08
0.000244028
-4.54688e-08
2.37535e-08
-1.88106e-08
0.000244059
3.99045e-08
-0.000211425
-1.91139e-08
0.000211447
3.39213e-08
-7.13334e-09
-9.15832e-09
1.2586e-08
-0.00026484
2.29592e-08
0.000264887
-3.09704e-08
-7.2418e-08
3.28536e-08
7.18778e-08
0.000244089
-4.05478e-08
3.60083e-09
-1.11369e-08
0.000114619
-0.000249676
5.20292e-09
5.22881e-09
-1.26797e-08
-1.49854e-08
0.000249694
5.40136e-09
9.52864e-05
4.28328e-09
5.40577e-09
9.53042e-05
4.28146e-09
1.28328e-08
1.5163e-08
-4.36463e-09
9.5296e-05
-4.34607e-09
9.53138e-05
-2.30756e-08
-0.000243991
1.93111e-08
-4.56081e-08
0.000244028
1.85969e-08
0.000211366
0.000264691
-2.36715e-08
3.80634e-08
7.44455e-08
-3.35973e-08
7.2012e-09
-1.50897e-08
0.000314803
-3.63462e-08
-7.51215e-08
0.000264746
4.46325e-08
0.000211388
-0.000244059
1.93189e-08
-2.30565e-08
-4.06942e-08
0.000244088
1.85994e-08
0.000211426
-2.36577e-08
0.00026484
7.17892e-08
3.27878e-08
7.20814e-09
-3.36574e-08
8.69389e-09
-1.25409e-08
0.000314908
3.97326e-08
0.000211448
-7.25101e-08
-3.10562e-08
0.000264887
-4.08918e-09
0.000114628
1.34976e-08
-4.22992e-10
0.000169839
3.26372e-10
-3.9993e-10
-1.34237e-08
-2.0459e-11
4.5516e-08
-0.000249299
1.40889e-08
1.16853e-09
0.000249334
-5.00439e-08
-0.000201887
-4.16663e-10
-8.61234e-12
0.000201902
-5.99962e-10
4.90895e-08
-5.47451e-12
-1.55577e-11
0.000169853
1.31513e-08
9.2732e-05
-0.000302217
1.20292e-08
0.000302255
-4.69596e-08
-2.92316e-09
3.11093e-08
4.67981e-08
9.2744e-05
1.34951e-08
-5.99417e-10
0.000169924
3.21733e-10
-1.78394e-10
-1.34257e-08
4.81231e-08
-0.000249397
1.40928e-08
1.12065e-09
0.000249432
-5.00431e-08
-0.000201928
-4.1593e-10
0.000201943
-5.66748e-10
4.91103e-08
-1.50988e-11
0.000169938
1.31478e-08
9.27838e-05
-0.000302347
1.20408e-08
0.000302382
-4.4369e-08
-2.90891e-09
-3.61579e-09
3.11104e-08
4.41891e-08
9.27958e-05
-0.00016984
-1.42231e-08
2.30386e-10
-3.58867e-11
0.000169854
-1.331e-08
0.000249299
-5.64009e-10
4.88874e-08
6.86415e-10
0.000201888
6.465e-12
3.86434e-10
1.44771e-08
2.04734e-11
-4.63395e-08
0.000252733
4.87871e-10
1.18431e-09
-5.02148e-08
0.000249334
5.41583e-12
0.000201903
-9.2732e-05
-1.22463e-08
9.27442e-05
-1.25059e-08
0.000302217
4.61846e-08
1.24002e-09
-3.06076e-08
0.000223242
-4.72158e-08
0.000302255
-0.000169924
-1.42233e-08
4.15359e-10
-4.33142e-11
0.000169938
-1.33125e-08
0.000249397
-5.32248e-10
4.88663e-08
6.75649e-10
0.000201929
1.70952e-10
1.44722e-08
-4.89458e-08
0.000252774
4.76702e-10
1.13984e-09
-5.02274e-08
0.000249432
0.000201944
-9.27838e-05
-1.22535e-08
9.2796e-05
-1.25025e-08
0.000302348
4.35999e-08
1.23575e-09
4.06282e-09
-3.05955e-08
0.000223286
-4.4617e-08
0.000302382
-0.000249684
5.25032e-09
5.25004e-09
-1.26508e-08
-1.50919e-08
0.000249702
5.35969e-09
9.53025e-05
4.313e-09
5.36279e-09
9.52928e-05
4.33851e-09
1.27317e-08
1.51699e-08
-4.32887e-09
9.53121e-05
-4.36934e-09
9.53024e-05
-0.00024406
-2.3054e-08
1.92359e-08
-4.30186e-08
0.000244094
1.86632e-08
0.000211423
-2.36735e-08
0.00026483
3.54269e-08
6.93372e-08
-3.36647e-08
7.20787e-09
8.66705e-09
-1.52236e-08
0.000314905
4.20621e-08
-3.36828e-08
-6.99832e-08
0.000264877
0.000211445
-0.000244008
-2.31108e-08
1.71259e-08
-4.32956e-08
0.000244043
1.64933e-08
0.000211379
-2.37009e-08
0.000264736
3.54713e-08
7.43219e-08
-3.12069e-08
7.79204e-09
8.68093e-09
-1.51906e-08
0.000314846
4.23223e-08
-3.37368e-08
-7.50304e-08
0.00026479
0.000211399
0.000114628
0.000114632
-1.49199e-09
-1.33678e-09
0.00107675
-4.61193e-11
0.00108065
-1.09349e-10
-5.81429e-10
0.00108109
-1.67376e-10
0.00108741
-1.36562e-09
-1.34124e-09
0.00107695
-9.63392e-11
0.00108073
-1.63875e-10
0.00108112
0.00108745
-1.47433e-09
3.87504e-09
0.00107711
5.5893e-09
7.21844e-10
0.001081
-4.48818e-11
3.50536e-09
0.00108141
1.68802e-10
1.77069e-09
0.00108797
-1.28077e-09
-1.31596e-09
0.00107713
-7.8447e-11
0.00108104
-1.09968e-10
8.13765e-10
0.00108148
8.15124e-10
0.001088
-1.53179e-09
-1.36767e-09
0.00107675
-4.733e-11
0.00108065
-1.28964e-10
4.77056e-10
0.00108109
3.88331e-11
0.00108741
-1.40796e-09
-1.37615e-09
0.00107695
-9.56217e-11
0.00108073
-1.59285e-10
0.00108112
0.00108745
3.71109e-09
-1.90444e-07
0.000263759
-1.48592e-08
1.72144e-07
-9.08933e-10
-2.97713e-11
-0.000262377
2.92579e-10
-3.88892e-09
0.000262989
-0.000260536
-1.9188e-07
1.1202e-09
0.000260677
1.18406e-09
-3.23147e-09
1.15687e-08
0.000264519
-1.384e-08
-1.77953e-07
0.000265931
-0.000266487
-1.78672e-07
0.000266614
1.06474e-07
4.6265e-09
-0.000266731
-1.26331e-08
0.000266858
0.000266646
1.04359e-07
1.04524e-07
0.000253629
-2.20115e-07
-2.25292e-07
-0.000262467
1.05002e-07
0.000262772
-0.000262901
1.05174e-07
0.000263203
0.000253753
-0.000253637
-1.02233e-07
-1.0795e-07
0.000253761
2.20333e-07
2.27405e-07
0.000264921
-1.04262e-07
0.000262473
-1.01955e-07
0.000262909
0.000262783
0.000263208
-0.000263769
1.91824e-07
-1.89425e-09
3.83389e-09
0.000264543
1.90565e-07
0.000260543
-5.73802e-10
2.29884e-10
0.00026239
4.86154e-09
4.25046e-10
-1.70185e-07
3.23889e-11
0.000258943
-4.33705e-09
1.12769e-09
0.000260687
-1.863e-09
0.000263007
1.01535e-08
-0.000265932
1.7856e-07
0.000266641
1.80607e-07
0.000266485
0.000266721
1.10482e-08
-1.01883e-07
-5.47176e-09
0.000266471
0.000266843
0.000266615
-0.000263818
1.89408e-07
-1.11436e-09
1.09903e-09
0.000264599
1.88041e-07
0.000260616
-6.02719e-10
-5.98764e-10
0.000262418
4.57502e-10
-1.67683e-07
0.000258973
-1.72228e-09
1.18394e-09
0.000260757
0.000263035
-0.000265976
1.78679e-07
9.93463e-09
0.000266688
1.78117e-07
0.00026655
1.11504e-08
0.000266739
-5.55944e-09
-1.04632e-07
0.00026649
0.00026668
0.000266861
-1.05179e-07
-0.00025365
-1.05034e-07
0.000253774
2.22741e-07
2.27533e-07
0.000264947
0.000262889
-1.0452e-07
-1.04385e-07
0.000262526
0.000263199
0.000262831
5.32356e-10
-1.905e-07
0.000263756
-4.39526e-09
1.69632e-07
-3.5352e-10
-0.000262391
-2.03909e-10
0.000262993
-0.000260522
-1.91884e-07
1.1329e-09
0.000260666
-5.54306e-10
3.78305e-09
0.000264526
-1.77969e-07
0.000265906
-1.38071e-08
-0.000266459
-1.78512e-07
0.000266586
7.10417e-09
1.06437e-07
-1.26309e-08
-0.000266676
0.000266798
0.000266615
-0.000263813
1.8934e-07
-4.6999e-09
1.67383e-08
0.00026458
1.85416e-07
0.000260616
-3.28659e-09
-1.66831e-09
0.000262403
7.10847e-09
1.39984e-09
-1.72817e-07
-3.94131e-10
0.00025896
-1.74865e-08
3.65338e-09
0.000260753
-4.23641e-09
0.000263014
1.50625e-08
-0.000265993
1.78659e-07
0.000266713
1.75335e-07
0.000266557
0.000266762
1.39495e-08
-1.09692e-07
-8.10539e-09
0.000266495
0.000266882
0.000266687
-0.000263751
-5.87726e-10
1.89463e-07
1.08928e-09
0.000264527
5.18285e-12
0.000262388
1.87859e-07
0.000260525
-4.81549e-10
-1.70322e-07
4.65113e-10
0.000258931
-1.66774e-09
0.000262995
1.2302e-09
0.000260666
-0.000265908
1.78672e-07
1.26595e-08
0.000266615
1.7779e-07
0.000266458
1.37688e-08
0.000266676
-8.13231e-09
-1.04702e-07
0.000266416
0.000266586
0.000266798
8.23978e-10
-1.87971e-07
0.000263761
-1.67876e-09
1.67088e-07
-3.71117e-10
-0.00026239
-2.06391e-10
0.000263004
-0.000260544
-1.89347e-07
1.17752e-09
0.000260682
-5.93611e-10
1.05612e-09
0.000264536
-1.114e-08
-1.78056e-07
0.000265921
-0.000266482
-1.78585e-07
0.00026661
1.06478e-07
4.60141e-09
-0.000266715
-9.95351e-09
0.000266835
0.000266628
-0.000263822
1.91854e-07
-3.44234e-09
1.42122e-08
0.000264587
1.90509e-07
0.000260626
-3.25158e-09
-8.55269e-10
0.000262405
6.32932e-09
6.79776e-10
-1.70252e-07
-2.78282e-10
0.00025897
-1.48749e-08
3.69318e-09
0.000260764
-3.61491e-09
0.000263022
-0.000266007
1.26092e-08
1.81167e-07
0.000266721
1.80503e-07
0.000266581
1.38514e-08
0.000266799
-1.07018e-07
-5.41904e-09
0.000266537
0.000266919
0.000266713
-0.00026376
-5.85182e-10
1.89472e-07
1.08049e-09
0.000264536
-2.92808e-11
0.00026239
1.87867e-07
0.000260543
-5.09714e-10
-1.67767e-07
5.02812e-10
0.000258942
-1.6671e-09
0.000263005
1.27668e-09
0.000260682
-0.000265921
1.78755e-07
9.98302e-09
0.000266628
1.77881e-07
0.000266482
1.11198e-08
0.000266715
-5.60697e-09
-1.04733e-07
0.000266465
0.000266609
0.000266835
1.01811e-07
1.04514e-07
0.000253619
-2.25071e-07
-2.17777e-07
-0.000262855
1.05161e-07
0.000263158
-0.000262488
1.02511e-07
0.000262794
0.000253741
-1.05246e-07
-0.000253619
-1.02596e-07
0.00025374
2.20211e-07
2.27525e-07
0.0002649
0.000262855
-1.04446e-07
-1.01749e-07
0.000262487
0.000263158
0.000262794
3.22017e-09
-1.90497e-07
0.000263807
-1.48887e-08
1.72166e-07
-6.87288e-10
-0.000262406
2.42242e-09
0.000263008
-0.000260608
-1.91855e-07
3.7098e-09
0.000260746
-3.25201e-09
1.42287e-08
0.000264566
-1.11406e-08
-1.80541e-07
0.000265983
-0.000266547
-1.81201e-07
0.000266682
1.08948e-07
4.59052e-09
-0.000266755
-9.92704e-09
0.000266875
0.0002667
-0.000263759
-3.44349e-09
1.91958e-07
1.42178e-08
0.000264522
-5.65705e-10
0.000262377
3.87766e-09
1.90394e-07
0.000260536
-5.12478e-10
-1.72902e-07
9.64272e-10
2.8709e-11
0.00025893
-1.22104e-08
-1.19295e-09
0.000262986
3.78605e-09
0.000260675
-0.000265931
1.26666e-08
1.78769e-07
0.000266648
1.7785e-07
0.000266487
1.3811e-08
0.000266731
-1.04831e-07
-5.58212e-09
0.000266476
0.000266858
0.000266617
-0.000263807
-2.94845e-09
1.91992e-07
1.42502e-08
0.000264566
-2.70521e-09
0.000262406
1.90383e-07
0.000260607
-3.15174e-09
-1.72901e-07
7.30705e-10
0.000258963
-1.48668e-08
0.00026301
3.8057e-09
0.000260746
-0.000265983
1.81382e-07
9.95259e-09
0.0002667
1.80359e-07
0.000266547
1.11148e-08
0.000266755
-5.53433e-09
-1.07274e-07
0.000266485
0.000266682
0.000266874
-0.000253629
-1.05104e-07
-1.05274e-07
0.000253753
2.22527e-07
2.27745e-07
0.000264905
-1.04281e-07
0.000262467
-1.04451e-07
0.000262901
0.000262772
0.000263203
8.69061e-09
3.63974e-09
0.000114624
-0.000114636
8.78485e-09
3.59204e-09
0.000114622
-0.000114634
1.24442e-06
1.20831e-06
0.000262911
-2.17511e-07
-2.25218e-07
-0.000264921
1.25079e-08
-7.80916e-09
3.12914e-08
0.000314869
-0.000314896
1.50719e-08
-7.7951e-09
3.13503e-08
0.000314825
-0.000314854
1.28256e-10
4.54717e-08
-1.60385e-08
2.68453e-10
0.000252713
-0.000252742
3.11379e-08
-2.70651e-09
0.000223234
-0.000223259
4.54694e-08
-1.59782e-08
-4.39745e-11
0.000252753
-0.000252782
1.37337e-09
1.16979e-09
1.72112e-07
0.000258818
-0.000258947
2.42253e-09
-1.06848e-09
1.24689e-06
-2.60894e-07
2.59729e-07
8.96454e-07
-2.47535e-07
2.47513e-07
-8.96755e-07
-0.00107672
4.57079e-09
1.06407e-07
0.000266411
-0.000266479
2.24284e-09
1.1671e-09
9.70993e-07
-7.89545e-07
-9.69966e-07
7.89916e-07
-0.00107271
1.46202e-10
1.72131e-07
0.00025885
-0.000258976
-4.35628e-09
9.71184e-07
-7.89659e-07
-9.70146e-07
7.90004e-07
-0.00107285
4.8171e-08
2.019e-10
-4.81617e-11
-1.37706e-08
0.000252741
-0.000252776
3.12829e-08
-2.85017e-09
0.000223262
-0.000223287
1.70438e-09
6.24414e-10
1.72148e-07
0.000258837
-0.000258963
-2.94443e-09
-7.32779e-10
1.21094e-06
-2.58217e-07
2.57328e-07
8.96868e-07
-2.53154e-07
2.50509e-07
-8.99349e-07
-0.00107776
7.11203e-09
1.06445e-07
0.000266423
-0.00026649
1.81392e-10
6.13201e-09
9.68291e-07
-7.84142e-07
-9.69983e-07
7.84562e-07
-0.00107262
4.5642e-08
-1.378e-08
5.72347e-11
0.000252701
-0.000252733
3.35964e-08
-3.62017e-09
-2.8123e-09
0.000223199
-0.000223226
1.69696e-07
-6.61406e-11
0.000258808
-0.000258931
7.37449e-09
-1.24442e-06
-1.0455e-09
8.96694e-07
-2.53054e-07
-8.96733e-07
2.50414e-07
1.24708e-06
-2.63656e-07
2.62688e-07
-0.00107684
6.14531e-09
9.65663e-07
-7.84247e-07
-9.67336e-07
7.81849e-07
-0.00107258
-1.50141e-08
7.10688e-09
1.06389e-07
0.000266352
-0.000266417
1.11944e-08
0.000114604
-0.000114619
1.20559e-06
0.000262893
-2.20223e-07
-2.24998e-07
-0.000264898
-7.16196e-09
3.3698e-08
0.000314773
-0.000314803
-8.71635e-09
1.24361e-08
-1.01536e-08
3.38078e-08
0.000314878
-0.000314905
3.61799e-09
0.000114615
-0.000114627
1.12437e-09
-4.80602e-08
1.69555e-07
6.16968e-10
0.000258807
-0.00025893
2.4698e-09
-8.58516e-10
1.20799e-06
-2.55422e-07
2.54296e-07
8.93767e-07
-2.53006e-07
-8.93861e-07
2.50371e-07
-0.00107716
-1.47699e-09
9.84688e-10
9.62752e-07
-7.814e-07
-9.6176e-07
7.81758e-07
-0.00107236
-3.12056e-08
4.55751e-09
1.08848e-07
0.000266406
-0.000266476
-4.5557e-08
1.67034e-07
-6.09203e-10
0.00025884
-0.00025896
1.04671e-09
9.62908e-07
-7.81487e-07
-9.61882e-07
7.81879e-07
-0.00107249
5.74942e-11
-9.7375e-11
-1.59237e-08
0.000252702
-0.000252734
-2.75974e-09
0.000223216
-0.000223241
-4.8573e-11
-1.36486e-08
0.00025274
-0.000252771
-8.67969e-09
-3.86678e-09
-8.65893e-09
-3.85634e-09
-0.000249681
5.3712e-09
5.18552e-09
-1.51389e-08
-1.51932e-08
5.16586e-09
9.53026e-05
4.30779e-09
-9.53121e-05
5.37289e-09
9.52918e-05
4.23347e-09
-9.53014e-05
1.52031e-08
1.53211e-08
-0.000249701
-4.34255e-09
-4.4355e-09
-0.000244058
1.68844e-08
-2.30507e-08
-4.56549e-08
1.6696e-08
0.000211421
-0.000211441
-2.36749e-08
0.000264828
7.18329e-08
3.27681e-08
-0.000264877
7.62975e-09
-3.111e-08
-1.25283e-08
4.49053e-08
-0.000244095
-7.51894e-08
-3.09721e-08
-0.000244006
1.69337e-08
-2.30327e-08
-4.58721e-08
1.66164e-08
0.000211373
-0.000211393
-2.3799e-08
0.000264739
7.43098e-08
3.81483e-08
-0.000264796
7.6586e-09
-3.11204e-08
-1.52772e-08
4.47394e-08
-0.000244042
-7.51159e-08
-3.6315e-08
-0.000169839
5.41045e-10
-1.60894e-08
9.31216e-11
5.92859e-10
0.000201892
1.70765e-11
-0.000201908
-1.58293e-08
0.000249306
-3.78286e-10
4.64355e-08
-0.000249336
1.61761e-08
2.11471e-10
2.96746e-11
-4.61129e-08
2.45982e-10
-0.000169855
1.7009e-11
1.23399e-09
-4.74277e-08
-9.27283e-05
-1.47189e-08
-1.46731e-08
0.000302218
4.37942e-08
-0.00030225
1.93133e-09
-3.26672e-08
-9.27427e-05
-4.68922e-08
-0.000169924
4.94019e-10
-1.38909e-08
6.02751e-10
0.000201932
-0.000201949
-1.36107e-08
0.000249402
4.90961e-08
-0.000249437
1.62466e-08
2.767e-10
-4.61386e-08
-0.000169937
-5.01861e-08
-0.000169921
-1.38711e-08
3.12616e-10
-9.3365e-11
-1.36093e-08
0.000249398
-3.79218e-10
4.90664e-08
-0.000249434
5.87185e-10
0.000201928
-8.46081e-13
-0.000201943
7.61554e-10
1.39526e-08
-8.12214e-11
-4.87991e-08
4.54495e-10
-0.000169934
1.29097e-09
-5.01441e-08
-8.99286e-12
-9.27824e-05
-1.23357e-08
-1.23422e-08
0.000302352
4.3908e-08
-0.000302387
1.35204e-09
-2.9999e-08
-9.27943e-05
-4.44415e-08
-0.000169834
5.00711e-10
-1.61161e-08
1.33324e-10
5.86549e-10
0.000201887
-0.000201902
-1.57968e-08
0.000249296
-3.74549e-10
4.64361e-08
-0.000249326
1.38865e-08
2.34712e-10
-4.61558e-08
2.50722e-10
-0.000169849
1.23404e-09
-4.74103e-08
-9.27262e-05
-1.47046e-08
-1.46835e-08
0.000302209
4.37243e-08
-0.000302242
1.39941e-09
3.91731e-09
-3.25499e-08
-9.27406e-05
-4.42943e-08
-1.11516e-08
-0.000249676
5.27799e-09
5.29624e-09
-1.27358e-08
-1.50607e-08
5.26878e-09
9.52872e-05
4.24775e-09
-9.52967e-05
5.28841e-09
9.53049e-05
4.22351e-09
-9.53144e-05
1.27917e-08
1.50819e-08
-0.000249694
-4.36306e-09
-4.35476e-09
-2.30197e-08
-0.000243991
1.90521e-08
-4.55889e-08
1.87852e-08
0.000211365
-0.000211387
0.000264692
-2.37392e-08
3.8099e-08
7.43488e-08
-0.000264747
-3.35294e-08
7.06481e-09
-1.51375e-08
-3.62928e-08
-7.51531e-08
4.4623e-08
-0.000244028
-0.000244059
1.90754e-08
-2.2998e-08
-4.07126e-08
1.90476e-08
0.000211425
-0.00021145
-2.6322e-08
0.00026484
7.17432e-08
3.28691e-08
-0.000264885
7.02758e-09
-3.35325e-08
8.68011e-09
-1.25699e-08
3.96897e-08
-0.000244091
-7.25331e-08
-3.09678e-08
-3.89417e-09
-0.000169836
-1.6122e-08
4.7233e-10
-1.34985e-10
-1.58002e-08
0.000249299
-4.51979e-10
4.90021e-08
-0.000249332
5.92779e-10
0.000201885
-4.89451e-12
-0.000201901
4.58987e-10
1.6291e-08
-5.74036e-12
-4.8737e-08
4.99854e-10
-0.000169852
1.22708e-09
-5.00287e-08
5.6501e-12
-9.27325e-05
-1.2343e-08
-1.2299e-08
0.000302217
4.38209e-08
-0.000302252
1.39062e-09
-3.01768e-08
-9.27443e-05
-4.44305e-08
-0.000169921
-1.60972e-08
4.69358e-10
-1.58559e-08
0.000249397
4.89907e-08
-0.00024943
5.86309e-10
0.000201928
-0.000201942
1.8222e-10
1.40169e-08
-4.62259e-08
-0.000169937
-5.00409e-08
-1.10861e-09
-6.50179e-09
-0.00107711
-5.23648e-09
-1.57507e-09
-0.001081
-1.7488e-10
-5.20885e-09
-0.0010814
-4.43104e-09
-4.81704e-09
-0.00108796
-3.75404e-10
-0.00108104
-2.82852e-09
-0.001088
4.29932e-09
-1.52486e-09
-0.00107675
-3.25802e-10
-0.00108065
-2.37012e-10
-9.40331e-09
-0.00108108
-9.28229e-09
-0.0010874
-2.16442e-10
-0.00108113
-0.00108745
-0.000253637
-1.05093e-07
-1.02846e-07
2.20181e-07
2.27688e-07
-1.04272e-07
0.000262473
-0.000262775
-1.0201e-07
0.000262906
-0.000263214
-0.000253753
-0.000263768
1.89396e-07
-2.16138e-09
3.76935e-09
1.87891e-07
0.000260548
-4.53479e-10
-0.000260688
9.25126e-10
0.000262391
4.57144e-09
-0.000263013
7.16315e-10
-1.72789e-07
-1.37106e-10
-4.36751e-09
-0.000264545
1.203e-09
-2.09244e-09
9.985e-09
-0.000265926
1.76035e-07
1.75493e-07
0.000266488
-0.000266615
0.000266723
1.11739e-08
-0.000266843
-1.04569e-07
-5.52877e-09
-0.000266641
-0.00026382
1.89455e-07
-6.43407e-10
1.87946e-07
0.000260618
-0.000260756
-2.90767e-10
0.000262419
-0.000263031
2.25448e-10
-1.72824e-07
-0.000264598
-0.000263815
1.91859e-07
-4.53135e-09
1.9479e-08
1.90512e-07
0.000260613
-3.18341e-09
-0.000260751
-1.29365e-09
0.000262403
6.70703e-09
-0.00026302
1.25098e-09
-1.70232e-07
-5.01504e-10
-1.73144e-08
-0.000264579
3.68644e-09
-4.58762e-09
1.00116e-08
-0.000265988
1.78748e-07
1.77833e-07
0.000266555
-0.000266685
0.000266757
1.37025e-08
-0.00026688
-1.04607e-07
-5.49781e-09
-0.000266713
-0.000263751
-2.87421e-10