/*--------------------------------*- C++ -*----------------------------------*\
| =========                 |                                                 |
| \\      /  F ield         | OpenFOAM: The Open Source CFD Toolbox           |
|  \\    /   O peration     | Version:  v1912                                 |
|   \\  /    A nd           | Website:  www.openfoam.com                      |
|    \\/     M anipulation  |                                                 |
\*---------------------------------------------------------------------------*/
FoamFile
{
    version     2.0;
    format      ascii;
    class       volVectorField;
    location    "20";
    object      U;
}
// * * * * * * * * * * * * * * * * * * * * * * * * * * * * * * * * * * * * * //

dimensions      [0 1 -1 0 0 0 0];


internalField   nonuniform List<vector> 
57566
(
(-2.26258e-06 1.59349e-06 0.0836941)
(6.54497e-08 1.55104e-05 0.10199)
(6.9314e-07 -4.38556e-07 0.102297)
(-1.53312e-07 -5.34844e-07 0.102319)
(-4.03309e-06 1.41597e-05 0.100997)
(4.32439e-05 4.32712e-05 0.102254)
(4.55754e-06 4.87377e-06 0.0991147)
(4.86327e-06 4.55435e-06 0.099114)
(1.76207e-06 2.63445e-06 0.0836808)
(2.65959e-06 1.83653e-06 0.0836805)
(4.13935e-05 4.14382e-05 0.102252)
(5.0297e-06 4.72433e-06 0.0991026)
(4.73536e-06 5.08153e-06 0.0991021)
(-3.31073e-08 8.45053e-06 0.100719)
(6.67468e-07 6.0582e-06 0.094835)
(4.44699e-08 8.45383e-06 0.100719)
(-6.49188e-07 6.05915e-06 0.0948358)
(-4.38991e-08 1.56337e-05 0.101988)
(7.89735e-07 5.12343e-07 0.102297)
(3.82271e-06 1.48483e-05 0.100986)
(-1.3135e-07 5.68189e-07 0.102319)
(5.06489e-08 1.56302e-05 0.101988)
(-7.08648e-07 4.79696e-07 0.102297)
(-3.85409e-06 1.48746e-05 0.100986)
(1.57664e-07 5.5988e-07 0.102319)
(-1.83939e-06 2.72403e-06 0.0836819)
(-4.14161e-05 4.13959e-05 0.102252)
(-5.10898e-06 4.7993e-06 0.0991026)
(-4.67323e-06 5.02264e-06 0.0991022)
(-2.59649e-06 1.77498e-06 0.0836806)
(-8.45205e-06 -2.27321e-08 0.100726)
(-6.211e-06 1.22307e-06 0.0948468)
(-1.54966e-05 -6.28631e-08 0.10199)
(4.69973e-07 -7.03725e-07 0.102297)
(5.47868e-07 1.52999e-07 0.102319)
(-1.41053e-05 4.00909e-06 0.100997)
(8.47204e-06 2.85828e-08 0.100719)
(6.05796e-06 6.83303e-07 0.0948352)
(1.56006e-05 -3.29313e-08 0.101987)
(4.65907e-07 6.50623e-07 0.102297)
(1.48292e-05 3.87221e-06 0.100986)
(5.44509e-07 -1.67142e-07 0.102319)
(8.44047e-06 9.32938e-08 0.100719)
(5.91822e-06 -5.84388e-07 0.0948347)
(1.55562e-05 6.3685e-08 0.101987)
(4.655e-07 -7.03461e-07 0.102297)
(5.43852e-07 1.48884e-07 0.102319)
(1.47426e-05 -3.79549e-06 0.100986)
(1.5481e-05 -5.44093e-08 0.10199)
(-4.66247e-07 -7.01218e-07 0.102297)
(-5.54437e-07 1.54463e-07 0.102319)
(1.41312e-05 4.03151e-06 0.100997)
(8.41309e-06 -2.10411e-08 0.100726)
(6.26313e-06 1.22122e-06 0.0948465)
(-1.55943e-05 -3.64989e-08 0.101987)
(-4.50932e-07 7.01327e-07 0.102297)
(-1.48125e-05 3.83816e-06 0.100986)
(-5.49846e-07 -1.48096e-07 0.102319)
(-8.4194e-06 1.63114e-08 0.100719)
(-5.98486e-06 6.57459e-07 0.0948354)
(-1.55591e-05 5.30988e-08 0.101987)
(-4.59813e-07 -6.99943e-07 0.102297)
(-5.50037e-07 1.51107e-07 0.102319)
(-1.47665e-05 -3.81902e-06 0.100986)
(-8.39788e-06 6.54223e-08 0.100719)
(-5.98613e-06 -6.00213e-07 0.0948356)
(-4.32305e-05 4.32748e-05 0.102254)
(-4.48749e-06 4.84078e-06 0.099115)
(-4.88256e-06 4.5662e-06 0.0991146)
(-1.66284e-06 2.38161e-06 0.083694)
(2.40401e-06 -1.65179e-06 0.0836791)
(4.14069e-05 -4.1445e-05 0.102252)
(4.65158e-06 -5.06168e-06 0.0991014)
(5.10922e-06 -4.7072e-06 0.0991031)
(1.71946e-06 -2.50045e-06 0.0836819)
(-6.51786e-08 1.55034e-05 0.10199)
(-6.90651e-07 -4.42679e-07 0.102297)
(1.50634e-07 -5.38416e-07 0.102319)
(4.02196e-06 1.41664e-05 0.100997)
(4.31501e-08 8.45632e-06 0.100726)
(-1.22545e-06 6.27548e-06 0.0948465)
(-4.31721e-08 8.45351e-06 0.100726)
(1.21234e-06 6.26301e-06 0.0948466)
(-4.87688e-08 -1.55361e-05 0.101987)
(6.93481e-07 -4.37352e-07 0.102297)
(-1.52502e-07 -5.39055e-07 0.102319)
(3.82332e-06 -1.47658e-05 0.100987)
(4.77174e-08 -1.5538e-05 0.101987)
(-6.8981e-07 -4.35836e-07 0.102297)
(1.49531e-07 -5.32899e-07 0.102319)
(-3.82327e-06 -1.47733e-05 0.100986)
(-2.32206e-08 -8.41076e-06 0.100719)
(6.06035e-07 -5.98383e-06 0.0948356)
(2.16346e-08 -8.41079e-06 0.100719)
(-6.10148e-07 -5.9807e-06 0.0948357)
(2.38379e-06 1.65537e-06 0.0836938)
(1.65054e-06 2.38377e-06 0.0836929)
(-4.14357e-05 -4.14452e-05 0.102252)
(-4.72196e-06 -5.10943e-06 0.099103)
(-5.0993e-06 -4.70872e-06 0.0991025)
(-2.50786e-06 -1.71759e-06 0.0836816)
(-1.71954e-06 -2.50829e-06 0.0836807)
(2.60987e-06 -1.7792e-06 0.0836792)
(-3.45579e-06 -3.45946e-06 0.0976775)
(1.07195e-06 1.41773e-06 0.0808641)
(1.41665e-06 1.07522e-06 0.0808601)
(-1.51363e-06 -1.7608e-06 0.0808513)
(-1.76788e-06 -1.51102e-06 0.0808473)
(3.47769e-06 3.48326e-06 0.0976922)
(-1.03888e-05 -5.23484e-06 0.100836)
(3.16514e-06 2.0116e-06 0.0942247)
(-4.77024e-06 -5.10433e-06 0.0991029)
(1.53574e-05 8.84861e-06 0.101726)
(-1.55124e-05 -9.3766e-06 0.101722)
(-2.96466e-06 -1.81021e-06 0.0942136)
(1.04334e-05 5.02363e-06 0.100845)
(-5.25641e-06 -1.04099e-05 0.100835)
(2.03926e-06 3.20217e-06 0.0942219)
(-5.09607e-06 -4.75928e-06 0.0991024)
(8.86477e-06 1.53513e-05 0.101726)
(-9.38651e-06 -1.54874e-05 0.101721)
(-1.83783e-06 -2.99792e-06 0.0942113)
(5.05179e-06 1.04579e-05 0.100843)
(-1.62278e-06 -2.28766e-06 0.0836954)
(-2.37444e-06 -1.62939e-06 0.0836936)
(-3.43585e-06 -3.46995e-06 0.0976925)
(1.80664e-06 1.54479e-06 0.0808524)
(1.48051e-06 1.73779e-06 0.080846)
(3.44501e-06 3.45622e-06 0.0976771)
(-1.42054e-06 -1.07273e-06 0.0808642)
(-1.05505e-06 -1.36815e-06 0.080861)
(-4.99829e-06 -1.05097e-05 0.100843)
(1.86246e-06 2.96855e-06 0.0942146)
(9.40045e-06 1.54731e-05 0.101722)
(-4.8052e-06 -4.41825e-06 0.0991157)
(5.30646e-06 1.04595e-05 0.100837)
(-2.06684e-06 -3.2117e-06 0.0942242)
(-8.79757e-06 -1.52751e-05 0.101726)
(-1.04338e-05 -5.06788e-06 0.100845)
(2.89316e-06 1.75434e-06 0.09421)
(1.54954e-05 9.3613e-06 0.101721)
(-4.61977e-06 -4.87453e-06 0.0991144)
(1.03786e-05 5.19568e-06 0.100834)
(-3.20602e-06 -2.01396e-06 0.094223)
(-1.54485e-05 -8.92399e-06 0.101726)
(4.07425e-07 -2.86991e-06 0.0911244)
(-1.09873e-07 2.44908e-06 0.0928421)
(-9.2169e-08 8.55964e-06 0.10038)
(6.59356e-08 -8.40155e-06 0.100726)
(-6.02222e-07 2.58966e-06 0.0911161)
(1.08931e-07 -2.97328e-06 0.0928487)
(-1.90066e-08 -8.55186e-06 0.100389)
(5.60602e-07 -2.03091e-06 0.0800886)
(5.74168e-08 7.0758e-06 0.0985793)
(-1.20326e-06 -6.14835e-06 0.0948471)
(-6.86258e-07 2.57624e-06 0.0800711)
(-4.92187e-07 -7.21522e-06 0.0985972)
(-4.00532e-07 -2.92992e-06 0.0911248)
(1.16833e-07 2.41934e-06 0.0928422)
(7.03875e-08 8.58617e-06 0.10038)
(-3.7012e-08 -8.40933e-06 0.100726)
(6.18726e-07 2.60682e-06 0.0911175)
(-1.14748e-07 -3.00371e-06 0.0928487)
(3.81909e-08 -8.59403e-06 0.100389)
(-5.34674e-07 -2.08647e-06 0.0800864)
(-7.93746e-08 7.1203e-06 0.0985801)
(1.22269e-06 -6.25775e-06 0.0948469)
(6.66896e-07 2.6499e-06 0.0800712)
(5.16159e-07 -7.27438e-06 0.0985963)
(1.67956e-06 -2.37258e-06 0.083694)
(3.48314e-06 -3.47095e-06 0.0976922)
(-1.78621e-06 1.52389e-06 0.0808479)
(-1.51947e-06 1.7732e-06 0.0808511)
(-3.47426e-06 3.47081e-06 0.0976776)
(1.40336e-06 -1.06564e-06 0.0808608)
(1.07392e-06 -1.38414e-06 0.080864)
(5.03212e-06 -1.0431e-05 0.100844)
(-1.78854e-06 2.93902e-06 0.0942112)
(-9.38712e-06 1.55308e-05 0.101721)
(4.87712e-06 -4.5699e-06 0.0991142)
(8.85709e-06 -1.53732e-05 0.101726)
(-5.2499e-06 1.03924e-05 0.100835)
(2.04349e-06 -3.21492e-06 0.0942224)
(1.04757e-05 -5.04073e-06 0.100845)
(-2.90774e-06 1.79003e-06 0.0942136)
(-1.54861e-05 9.37982e-06 0.101722)
(4.449e-06 -4.76905e-06 0.0991162)
(-1.04091e-05 5.2581e-06 0.100836)
(3.19324e-06 -2.01531e-06 0.0942251)
(1.53649e-05 -8.85453e-06 0.101726)
(2.28348e-06 -1.60187e-06 0.0836955)
(2.48717e-06 5.93096e-07 0.0911157)
(8.47909e-06 7.08654e-08 0.100719)
(-3.07963e-06 -8.89403e-08 0.0928481)
(-8.53767e-06 -4.98705e-09 0.100389)
(2.4292e-06 9.66567e-08 0.0928425)
(8.53444e-06 8.40565e-08 0.10038)
(-2.93404e-06 -3.69392e-07 0.0911245)
(2.53471e-06 7.01223e-07 0.0800702)
(-7.17254e-06 4.63891e-07 0.0985974)
(6.00805e-06 -6.47855e-07 0.0948345)
(7.07278e-06 -3.91957e-08 0.0985786)
(-1.96767e-06 -5.62055e-07 0.0800895)
(-2.93486e-06 4.39459e-07 0.0911247)
(8.57192e-06 -5.7409e-08 0.10038)
(2.4576e-06 -3.67448e-08 0.0928426)
(-8.46815e-06 1.17986e-07 0.100726)
(2.63359e-06 -5.60254e-07 0.0911175)
(-8.60297e-06 1.2907e-08 0.100389)
(-3.13481e-06 1.62189e-07 0.0928481)
(-2.09913e-06 5.71226e-07 0.0800868)
(7.10727e-06 9.1937e-08 0.0985801)
(-6.20493e-06 -1.16873e-06 0.0948469)
(2.63688e-06 -6.26594e-07 0.0800714)
(-7.28792e-06 -4.84691e-07 0.0985964)
(-2.97044e-06 -3.94092e-07 0.0911251)
(2.36578e-06 1.71538e-07 0.0928428)
(8.48004e-06 1.10954e-07 0.10038)
(-8.50287e-06 -1.50927e-08 0.100726)
(2.4122e-06 6.6603e-07 0.091116)
(-3.16737e-06 -3.59571e-08 0.0928487)
(-8.58327e-06 2.92659e-09 0.100389)
(-2.15043e-06 -5.52269e-07 0.0800896)
(6.98148e-06 -3.51242e-08 0.0985787)
(-6.26218e-06 1.2575e-06 0.0948472)
(2.20852e-06 7.91013e-07 0.08007)
(-7.15042e-06 4.97223e-07 0.0985976)
(-2.56286e-06 5.99034e-07 0.0911167)
(-8.44164e-06 4.3325e-08 0.100719)
(3.01021e-06 -9.76147e-08 0.0928486)
(8.60001e-06 3.11092e-08 0.100389)
(-2.36722e-06 1.0514e-07 0.0928422)
(-8.58223e-06 4.83866e-08 0.10038)
(2.98277e-06 -3.82017e-07 0.0911241)
(-2.66366e-06 6.55861e-07 0.0800733)
(7.25852e-06 5.01128e-07 0.0985962)
(-6.07996e-06 -6.57458e-07 0.0948354)
(-7.13949e-06 -8.46867e-08 0.0985797)
(2.08798e-06 -5.24079e-07 0.0800886)
(2.92473e-06 4.35205e-07 0.0911249)
(-8.5596e-06 -4.59843e-08 0.10038)
(-2.39588e-06 -4.00697e-08 0.0928422)
(8.42769e-06 1.08395e-07 0.100726)
(-2.59878e-06 -5.79309e-07 0.0911176)
(8.59086e-06 -8.11244e-09 0.100389)
(3.01418e-06 1.81088e-07 0.0928486)
(2.09425e-06 5.53827e-07 0.0800873)
(-7.10067e-06 9.4104e-08 0.0985802)
(6.20197e-06 -1.18949e-06 0.0948474)
(-2.64254e-06 -6.4257e-07 0.080072)
(7.27689e-06 -4.90845e-07 0.0985967)
(3.03397e-06 -4.09686e-07 0.0911246)
(-2.32487e-06 1.89246e-07 0.0928425)
(-8.52716e-06 8.05107e-08 0.10038)
(8.4663e-06 6.2285e-09 0.100726)
(-2.49949e-06 6.69573e-07 0.091117)
(3.09609e-06 -3.82633e-08 0.0928491)
(8.64176e-06 3.86377e-08 0.100389)
(2.26177e-06 -5.28724e-07 0.0800887)
(-7.04797e-06 -7.3834e-08 0.0985798)
(6.3239e-06 1.26076e-06 0.094847)
(-2.3301e-06 7.41962e-07 0.080073)
(7.22228e-06 5.38552e-07 0.0985963)
(3.44935e-06 -3.45979e-06 0.0976774)
(-1.07205e-06 1.41306e-06 0.0808597)
(-1.40775e-06 1.07675e-06 0.0808639)
(1.50412e-06 -1.76059e-06 0.0808467)
(1.76018e-06 -1.50227e-06 0.0808509)
(-3.46029e-06 3.47496e-06 0.0976921)
(1.0385e-05 -5.24194e-06 0.100835)
(-3.21679e-06 2.0529e-06 0.094222)
(4.72713e-06 -5.04491e-06 0.0991013)
(-1.53565e-05 8.86766e-06 0.101726)
(2.948e-06 -1.79693e-06 0.0942105)
(1.55093e-05 -9.37392e-06 0.101721)
(-1.04413e-05 5.05047e-06 0.100844)
(5.21756e-06 -1.03994e-05 0.100836)
(-2.03427e-06 3.22466e-06 0.0942248)
(5.09462e-06 -4.77226e-06 0.099103)
(-8.86455e-06 1.53582e-05 0.101726)
(9.37134e-06 -1.54871e-05 0.101722)
(1.78952e-06 -2.9558e-06 0.0942136)
(-5.0208e-06 1.04494e-05 0.100845)
(1.84545e-06 -2.70743e-06 0.0836819)
(-2.43998e-06 1.6981e-06 0.0836944)
(-3.42874e-06 3.44652e-06 0.0976922)
(1.30419e-06 -1.61807e-06 0.0808463)
(1.61875e-06 -1.30203e-06 0.0808506)
(3.4386e-06 -3.44555e-06 0.0976774)
(-1.21005e-06 1.49029e-06 0.0808596)
(-1.48428e-06 1.2144e-06 0.0808638)
(-1.05086e-05 5.09244e-06 0.100844)
(2.86081e-06 -1.7405e-06 0.0942108)
(1.54328e-05 -9.33005e-06 0.101721)
(-4.53682e-06 4.83258e-06 0.0991151)
(-1.54398e-05 8.91313e-06 0.101726)
(1.03246e-05 -5.20505e-06 0.100835)
(-3.29675e-06 2.05306e-06 0.0942224)
(-5.06615e-06 1.05191e-05 0.100845)
(1.73261e-06 -2.86106e-06 0.0942139)
(9.33011e-06 -1.54091e-05 0.101722)
(-4.87709e-06 4.60114e-06 0.0991147)
(5.18202e-06 -1.0335e-05 0.100836)
(-2.03732e-06 3.30267e-06 0.0942252)
(-8.9083e-06 1.5438e-05 0.101726)
(-1.76531e-06 2.55044e-06 0.0836943)
(-5.92088e-07 -2.56639e-06 0.0911168)
(-2.80515e-08 -8.47975e-06 0.100719)
(-4.87085e-09 8.59358e-06 0.100389)
(9.5724e-08 3.0923e-06 0.0928481)
(-4.49794e-08 -8.57942e-06 0.10038)
(-1.11469e-07 -2.41722e-06 0.0928426)
(3.91594e-07 2.98693e-06 0.0911241)
(-6.49977e-07 -2.66273e-06 0.0800735)
(-4.90726e-07 7.26471e-06 0.0985962)
(6.56443e-07 -6.08195e-06 0.0948354)
(8.95207e-08 -7.14059e-06 0.0985797)
(5.36369e-07 2.08808e-06 0.0800889)
(5.89939e-07 -2.563e-06 0.0911177)
(2.88985e-08 -8.47897e-06 0.100719)
(2.82072e-09 8.59189e-06 0.100389)
(-9.62716e-08 3.08951e-06 0.0928482)
(4.41374e-08 -8.57362e-06 0.10038)
(1.09707e-07 -2.41939e-06 0.0928427)
(-3.92143e-07 2.98669e-06 0.091125)
(6.47888e-07 -2.65951e-06 0.0800719)
(4.8368e-07 7.266e-06 0.0985963)
(-6.62829e-07 -6.07281e-06 0.0948354)
(-9.09561e-08 -7.13904e-06 0.0985802)
(-5.36925e-07 2.08891e-06 0.0800872)
(4.34487e-07 3.04315e-06 0.0911246)
(-6.77512e-08 -8.51089e-06 0.10038)
(-1.11505e-07 -2.35575e-06 0.092843)
(5.63789e-08 8.52223e-06 0.100726)
(-6.33706e-07 -2.49488e-06 0.0911171)
(-4.05881e-09 8.6441e-06 0.100389)
(1.01698e-07 3.17464e-06 0.0928487)
(5.46051e-07 2.26779e-06 0.080089)
(8.51392e-08 -7.04114e-06 0.0985798)
(-1.25371e-06 6.34017e-06 0.094847)
(-7.23849e-07 -2.32463e-06 0.0800732)
(-5.13252e-07 7.23918e-06 0.0985963)
(-4.38524e-07 3.0407e-06 0.0911255)
(6.60094e-08 -8.50817e-06 0.10038)
(1.0876e-07 -2.35881e-06 0.092843)
(-5.81176e-08 8.51937e-06 0.100726)
(6.28907e-07 -2.49453e-06 0.091118)
(4.52416e-10 8.64118e-06 0.100389)
(-1.00202e-07 3.17395e-06 0.0928487)
(-5.49397e-07 2.26765e-06 0.0800873)
(-8.72596e-08 -7.04228e-06 0.0985803)
(1.24966e-06 6.32618e-06 0.094847)
(7.18012e-07 -2.32263e-06 0.0800716)
(5.1088e-07 7.23534e-06 0.0985965)
(-2.71172e-06 -1.84797e-06 0.0836817)
(-1.84873e-06 -2.70616e-06 0.0836807)
(3.45813e-06 3.46079e-06 0.0976923)
(-1.2969e-06 -1.61387e-06 0.0808508)
(-1.62093e-06 -1.29935e-06 0.0808469)
(-3.40551e-06 -3.40631e-06 0.0976776)
(1.21809e-06 1.48742e-06 0.0808641)
(1.49011e-06 1.21781e-06 0.0808601)
(1.05068e-05 5.07613e-06 0.100845)
(-2.92455e-06 -1.76415e-06 0.0942138)
(-1.54412e-05 -9.33674e-06 0.101722)
(4.5855e-06 4.88228e-06 0.0991148)
(-1.0323e-05 -5.18444e-06 0.100836)
(1.54354e-05 8.89769e-06 0.101726)
(3.24195e-06 2.01823e-06 0.0942251)
(5.10445e-06 1.05309e-05 0.100843)
(-1.77813e-06 -2.93256e-06 0.0942115)
(-9.34325e-06 -1.54124e-05 0.101721)
(4.86871e-06 4.58821e-06 0.0991141)
(-5.20681e-06 -1.03396e-05 0.100835)
(8.91689e-06 1.54323e-05 0.101726)
(2.05075e-06 3.29096e-06 0.0942223)
(2.54411e-06 1.76312e-06 0.0836941)
(1.75561e-06 2.54627e-06 0.0836932)
(-6.117e-07 6.28861e-07 0.102327)
(-2.61883e-07 -2.795e-07 0.102332)
(2.95729e-07 2.70934e-07 0.102332)
(2.44523e-07 -2.36874e-07 0.102334)
(6.11672e-07 6.15285e-07 0.102327)
(2.70734e-07 -2.92229e-07 0.102332)
(-2.9496e-07 2.77513e-07 0.102332)
(-2.41121e-07 -2.30443e-07 0.102334)
(-6.16749e-07 -6.05914e-07 0.102327)
(2.75916e-07 -2.5521e-07 0.102332)
(-2.72433e-07 2.64539e-07 0.102332)
(2.54034e-07 2.35502e-07 0.102334)
(6.1117e-07 -6.06814e-07 0.102327)
(-3.05828e-07 -2.61376e-07 0.102332)
(2.73729e-07 2.97495e-07 0.102332)
(-2.40032e-07 2.3699e-07 0.102334)
(-6.17013e-07 6.34519e-07 0.102327)
(-2.66219e-07 -2.7699e-07 0.102332)
(2.94935e-07 2.76416e-07 0.102332)
(2.48439e-07 -2.38197e-07 0.102334)
(6.17814e-07 6.23387e-07 0.102327)
(2.73897e-07 -2.92032e-07 0.102332)
(-2.93647e-07 2.81325e-07 0.102332)
(-2.43844e-07 -2.35653e-07 0.102334)
(2.97329e-07 -5.10212e-05 0.102209)
(-5.02119e-08 -1.56033e-05 0.101987)
(1.7804e-07 5.00534e-05 0.102232)
(2.71284e-08 1.6223e-05 0.101925)
(-1.33565e-07 -4.9372e-05 0.10223)
(-6.72818e-08 -1.61349e-05 0.101921)
(-1.50292e-07 5.20724e-05 0.102212)
(1.74527e-06 -5.51187e-05 0.102146)
(-6.98684e-07 1.66077e-05 0.101679)
(3.86541e-06 -1.48612e-05 0.100987)
(-4.39516e-06 5.65761e-05 0.102013)
(5.02605e-06 -5.73846e-05 0.102009)
(3.29522e-07 -1.67009e-05 0.101672)
(-1.44534e-06 5.57248e-05 0.10215)
(-1.38874e-05 -1.38976e-05 0.101891)
(-4.14226e-05 -4.14328e-05 0.102252)
(1.53288e-05 4.59523e-05 0.102147)
(4.59177e-05 1.53335e-05 0.102147)
(-1.51671e-05 -4.57968e-05 0.102145)
(-4.57622e-05 -1.51595e-05 0.102145)
(1.42051e-05 1.421e-05 0.101895)
(-1.40991e-05 -1.43362e-05 0.101895)
(-4.32219e-05 -4.32947e-05 0.102254)
(4.57423e-05 1.51469e-05 0.102145)
(1.5157e-05 4.57589e-05 0.102145)
(1.38689e-05 1.38959e-05 0.101891)
(-4.59356e-05 -1.54044e-05 0.102147)
(-1.52752e-05 -4.59032e-05 0.102147)
(-1.69449e-07 -5.20852e-05 0.102212)
(-6.64111e-08 1.61715e-05 0.101921)
(-1.39684e-07 4.93488e-05 0.10223)
(6.68818e-08 -1.54772e-05 0.10199)
(2.93914e-07 5.10069e-05 0.102209)
(2.33977e-08 -1.61842e-05 0.101925)
(1.8267e-07 -5.00581e-05 0.102232)
(-1.52171e-06 -5.57397e-05 0.10215)
(3.1634e-07 1.67127e-05 0.101672)
(5.0082e-06 5.73955e-05 0.102009)
(-4.01882e-06 -1.40172e-05 0.100997)
(-4.42662e-06 -5.65569e-05 0.102013)
(1.72723e-06 5.5118e-05 0.102146)
(-6.98606e-07 -1.65455e-05 0.101679)
(1.52419e-07 -5.2096e-05 0.102212)
(6.15667e-08 1.61718e-05 0.101921)
(1.42534e-07 4.93534e-05 0.10223)
(-6.28976e-08 -1.54839e-05 0.10199)
(-2.9422e-07 5.10013e-05 0.102209)
(-1.3002e-08 -1.62194e-05 0.101925)
(-1.96432e-07 -5.00534e-05 0.102232)
(1.45719e-06 -5.57108e-05 0.10215)
(-3.15245e-07 1.67142e-05 0.101672)
(-5.01257e-06 5.74163e-05 0.102009)
(4.03478e-06 -1.41534e-05 0.100997)
(-1.74271e-06 5.51385e-05 0.102146)
(7.18586e-07 -1.65962e-05 0.101679)
(4.37188e-06 -5.65731e-05 0.102013)
(1.42403e-05 -1.4206e-05 0.101895)
(4.32753e-05 -4.32272e-05 0.102254)
(-4.57717e-05 1.51667e-05 0.102145)
(-1.51733e-05 4.57708e-05 0.102145)
(4.59331e-05 -1.53213e-05 0.102147)
(-1.3915e-05 1.38845e-05 0.101891)
(1.53536e-05 -4.59247e-05 0.102147)
(5.1014e-05 -2.87147e-07 0.102209)
(1.56112e-05 7.37204e-08 0.101987)
(-5.00353e-05 -1.82316e-07 0.102232)
(-1.62222e-05 -2.50118e-08 0.101925)
(4.93742e-05 1.58363e-07 0.10223)
(1.61334e-05 8.34241e-08 0.101921)
(-5.20721e-05 1.56271e-07 0.102212)
(5.51407e-05 -1.73352e-06 0.102146)
(-1.65716e-05 7.03461e-07 0.101679)
(1.4836e-05 -3.83603e-06 0.100986)
(-5.65571e-05 4.3707e-06 0.102013)
(1.66941e-05 -3.1412e-07 0.101672)
(-5.5696e-05 1.44934e-06 0.10215)
(5.74063e-05 -4.99945e-06 0.102009)
(-5.20713e-05 -1.16532e-07 0.102212)
(1.61404e-05 -5.09597e-08 0.101921)
(4.9354e-05 -1.36296e-07 0.10223)
(-1.55322e-05 8.57518e-08 0.10199)
(5.10209e-05 3.0192e-07 0.102209)
(-1.62317e-05 4.74828e-08 0.101925)
(-5.00632e-05 1.98958e-07 0.102232)
(-5.57118e-05 -1.37079e-06 0.10215)
(1.66831e-05 3.49195e-07 0.101672)
(5.74189e-05 5.02762e-06 0.102009)
(-1.42461e-05 -4.01184e-06 0.100997)
(-5.65649e-05 -4.33847e-06 0.102013)
(5.51179e-05 1.75856e-06 0.102146)
(-1.66508e-05 -6.77436e-07 0.101679)
(-5.21105e-05 1.64e-07 0.102212)
(4.93561e-05 1.38195e-07 0.10223)
(1.60764e-05 8.9239e-08 0.101921)
(-1.55622e-05 -5.5138e-08 0.10199)
(5.09981e-05 -2.91535e-07 0.102209)
(-5.0066e-05 -1.81232e-07 0.102232)
(-1.62811e-05 -1.41514e-09 0.101925)
(-5.5749e-05 1.4612e-06 0.10215)
(1.66069e-05 -2.75971e-07 0.101672)
(5.73495e-05 -4.9773e-06 0.102009)
(-1.41986e-05 4.04712e-06 0.100997)
(5.51093e-05 -1.72764e-06 0.102146)
(-1.66461e-05 7.40924e-07 0.101679)
(-5.6632e-05 4.388e-06 0.102013)
(-5.1008e-05 -2.98607e-07 0.102209)
(-1.56095e-05 6.58922e-08 0.101987)
(5.00321e-05 -1.82859e-07 0.102232)
(1.62228e-05 -7.65901e-09 0.101925)
(-4.93612e-05 1.49213e-07 0.10223)
(-1.61464e-05 6.93999e-08 0.101921)
(5.20759e-05 1.61096e-07 0.102212)
(-5.51456e-05 -1.74815e-06 0.102146)
(1.65789e-05 7.17492e-07 0.101679)
(-1.48585e-05 -3.85617e-06 0.100986)
(5.65488e-05 4.38748e-06 0.102013)
(-5.74074e-05 -5.0131e-06 0.102009)
(-1.67031e-05 -3.26337e-07 0.101672)
(5.56976e-05 1.46656e-06 0.10215)
(5.20745e-05 -1.40119e-07 0.102212)
(-1.61449e-05 -5.59652e-08 0.101921)
(-4.93425e-05 -1.44773e-07 0.10223)
(1.55096e-05 7.39588e-08 0.10199)
(-5.10129e-05 2.95027e-07 0.102209)
(1.62138e-05 3.28432e-08 0.101925)
(5.0062e-05 1.88815e-07 0.102232)
(5.5717e-05 -1.4402e-06 0.10215)
(-1.66928e-05 3.20537e-07 0.101672)
(-5.7379e-05 5.03187e-06 0.102009)
(1.41227e-05 -3.98893e-06 0.100997)
(-5.51145e-05 1.74709e-06 0.102146)
(5.65625e-05 -4.38282e-06 0.102013)
(1.66119e-05 -6.84829e-07 0.101679)
(5.21156e-05 1.67766e-07 0.102212)
(-4.93434e-05 1.24857e-07 0.10223)
(-1.60898e-05 7.64791e-08 0.101921)
(1.55455e-05 -4.48695e-08 0.10199)
(-5.09921e-05 -3.01681e-07 0.102209)
(5.00644e-05 -1.87025e-07 0.102232)
(1.62844e-05 1.54183e-08 0.101925)
(5.57532e-05 1.47608e-06 0.10215)
(-1.66199e-05 -2.82818e-07 0.101672)
(-5.73454e-05 -4.99907e-06 0.102009)
(1.42171e-05 4.06836e-06 0.100997)
(-5.51139e-05 -1.74222e-06 0.102146)
(1.66521e-05 7.58911e-07 0.101679)
(5.66275e-05 4.40121e-06 0.102013)
(1.38599e-05 -1.3917e-05 0.101891)
(4.13939e-05 -4.14344e-05 0.102252)
(-1.53052e-05 4.59267e-05 0.102147)
(-4.59309e-05 1.53481e-05 0.102147)
(4.57537e-05 -1.51693e-05 0.102145)
(1.51503e-05 -4.57764e-05 0.102145)
(-1.41945e-05 1.4237e-05 0.101895)
(-1.42478e-05 1.42901e-05 0.101895)
(-4.32366e-05 4.32803e-05 0.102254)
(1.51303e-05 -4.57791e-05 0.102145)
(4.57582e-05 -1.51481e-05 0.102145)
(-1.533e-05 4.59408e-05 0.102147)
(1.38045e-05 -1.38586e-05 0.10189)
(-4.59441e-05 1.53703e-05 0.102147)
(-2.86812e-07 -5.10244e-05 0.102209)
(4.92068e-08 -1.56043e-05 0.101987)
(-1.85702e-07 5.00414e-05 0.102232)
(-3.19073e-08 1.62216e-05 0.101925)
(1.36494e-07 -4.93722e-05 0.10223)
(6.50887e-08 -1.61368e-05 0.101921)
(1.3624e-07 5.20683e-05 0.102212)
(-1.73253e-06 -5.51212e-05 0.102146)
(6.9546e-07 1.66255e-05 0.101679)
(-3.86275e-06 -1.48668e-05 0.100986)
(4.39012e-06 5.6571e-05 0.102013)
(-5.02133e-06 -5.74011e-05 0.102009)
(-3.28075e-07 -1.67084e-05 0.101672)
(1.43783e-06 5.57279e-05 0.10215)
(-1.53266e-07 5.21173e-05 0.102212)
(-1.33476e-07 -4.93509e-05 0.10223)
(-7.74826e-08 -1.60717e-05 0.101921)
(6.07084e-08 1.55864e-05 0.10199)
(2.95681e-07 -5.10029e-05 0.102209)
(1.80146e-07 5.00918e-05 0.102232)
(1.15339e-08 1.62933e-05 0.101925)
(-1.45524e-06 5.57786e-05 0.10215)
(2.87994e-07 -1.66151e-05 0.101672)
(5.00984e-06 -5.73197e-05 0.102009)
(-4.0731e-06 1.42526e-05 0.100997)
(1.73994e-06 -5.5087e-05 0.102146)
(-4.41001e-06 5.66523e-05 0.102013)
(-7.31843e-07 1.66828e-05 0.101679)
(1.41855e-07 5.21122e-05 0.102212)
(1.3483e-07 -4.93533e-05 0.10223)
(7.5435e-08 -1.60737e-05 0.101921)
(-6.21483e-08 1.55786e-05 0.10199)
(-2.85399e-07 -5.10047e-05 0.102209)
(-1.85652e-07 5.00807e-05 0.102232)
(-1.29768e-08 1.62879e-05 0.101925)
(1.44465e-06 5.57856e-05 0.10215)
(-2.83852e-07 -1.66208e-05 0.101672)
(-5.00689e-06 -5.73371e-05 0.102009)
(4.05841e-06 1.42529e-05 0.100997)
(-1.72573e-06 -5.50877e-05 0.102146)
(7.33311e-07 1.67048e-05 0.101679)
(4.40334e-06 5.66499e-05 0.102013)
(1.42642e-05 1.42719e-05 0.101895)
(4.32496e-05 4.32769e-05 0.102254)
(-1.51481e-05 -4.57975e-05 0.102145)
(-4.57635e-05 -1.51389e-05 0.102145)
(-1.38289e-05 -1.38342e-05 0.10189)
(1.53513e-05 4.59705e-05 0.102147)
(4.59356e-05 1.53569e-05 0.102147)
(1.71596e-06 2.48733e-06 0.0836821)
(2.47044e-06 1.70012e-06 0.0836805)
(4.14173e-05 4.13924e-05 0.102252)
(5.05054e-06 4.70789e-06 0.0991032)
(4.73903e-06 5.05591e-06 0.0991024)
(-4.63457e-08 8.31741e-06 0.100719)
(8.0265e-07 6.31503e-06 0.0948352)
(5.24437e-08 8.32757e-06 0.100719)
(-5.86695e-08 1.55737e-05 0.101988)
(7.3303e-07 5.46475e-07 0.102297)
(3.84895e-06 1.47138e-05 0.100987)
(-2.17165e-07 5.63873e-07 0.102319)
(6.14653e-08 1.5567e-05 0.101988)
(1.68381e-07 5.64387e-07 0.102319)
(8.37939e-06 -3.05978e-08 0.100719)
(6.25134e-06 7.59817e-07 0.0948349)
(1.56136e-05 -4.93156e-08 0.101987)
(4.58137e-07 5.99977e-07 0.102297)
(1.48526e-05 3.79713e-06 0.100986)
(5.37384e-07 -1.03534e-07 0.102319)
(8.37604e-06 7.57683e-08 0.100719)
(6.21225e-06 -7.64431e-07 0.0948342)
(1.56255e-05 6.78929e-08 0.101987)
(4.89161e-07 -6.88174e-07 0.102297)
(5.60697e-07 1.62104e-07 0.102319)
(1.47885e-05 -3.8118e-06 0.100986)
(2.37562e-06 -1.64701e-06 0.0836788)
(4.14076e-05 -4.13873e-05 0.102252)
(4.68494e-06 -5.00907e-06 0.0991013)
(5.04963e-06 -4.72314e-06 0.099103)
(1.70796e-06 -2.46758e-06 0.0836816)
(-5.25275e-08 -1.55573e-05 0.101987)
(6.71953e-07 -4.88857e-07 0.102297)
(-1.38624e-07 -5.19014e-07 0.102319)
(3.81856e-06 -1.47898e-05 0.100986)
(5.38092e-08 -1.5553e-05 0.101988)
(1.57176e-07 -5.27613e-07 0.102319)
(-3.39647e-08 -8.32468e-06 0.100719)
(7.81349e-07 -6.28378e-06 0.0948351)
(3.41394e-08 -8.36934e-06 0.100719)
(-1.67501e-06 -2.44602e-06 0.0836948)
(-2.47028e-06 -1.68603e-06 0.0836932)
(-3.42666e-06 -3.51058e-06 0.0976922)
(1.49888e-06 1.17917e-06 0.0808505)
(1.2735e-06 1.46862e-06 0.0808475)
(3.4846e-06 3.4188e-06 0.0976771)
(-1.52339e-06 -1.22738e-06 0.0808644)
(-1.1551e-06 -1.56965e-06 0.0808613)
(-5.12881e-06 -1.05802e-05 0.100845)
(1.92536e-06 3.14671e-06 0.0942134)
(9.29978e-06 1.53609e-05 0.101722)
(-4.91225e-06 -4.59995e-06 0.0991148)
(5.12584e-06 1.02998e-05 0.100836)
(-1.9071e-06 -3.05532e-06 0.0942242)
(-8.88794e-06 -1.54852e-05 0.101726)
(-1.05533e-05 -5.10361e-06 0.100843)
(3.09281e-06 1.90538e-06 0.0942111)
(1.54869e-05 9.41748e-06 0.101721)
(-4.61206e-06 -4.92096e-06 0.0991142)
(1.03122e-05 5.22369e-06 0.100835)
(-3.10266e-06 -1.92823e-06 0.0942219)
(-1.53563e-05 -8.83295e-06 0.101726)
(4.84186e-07 -2.66216e-06 0.0911247)
(-1.05253e-07 2.72182e-06 0.0928418)
(-1.44017e-07 8.40704e-06 0.10038)
(4.66701e-08 -8.49714e-06 0.100726)
(-5.742e-07 2.67161e-06 0.0911155)
(1.19607e-07 -2.66982e-06 0.0928485)
(-5.10642e-08 -8.6452e-06 0.10039)
(5.70234e-07 -2.16174e-06 0.0800903)
(3.44245e-08 7.06702e-06 0.0985788)
(-1.06942e-06 -5.97946e-06 0.0948468)
(-8.0162e-07 2.08913e-06 0.08007)
(-4.89915e-07 -7.15382e-06 0.0985977)
(-4.2587e-07 -2.76143e-06 0.0911248)
(1.1418e-07 2.6659e-06 0.092842)
(9.42008e-08 8.46461e-06 0.10038)
(-1.15221e-08 -8.49843e-06 0.100726)
(5.95865e-07 2.72352e-06 0.0911172)
(-1.06062e-07 -2.71579e-06 0.0928486)
(5.88885e-08 -8.70549e-06 0.100389)
(-2.75395e-06 4.73728e-07 0.0911247)
(8.45475e-06 -1.33118e-07 0.10038)
(2.75747e-06 -1.04513e-07 0.0928423)
(-8.55033e-06 2.68458e-08 0.100726)
(2.73961e-06 -5.73483e-07 0.0911172)
(-8.70588e-06 -6.98094e-08 0.100389)
(-2.76278e-06 1.01227e-07 0.092848)
(-2.273e-06 5.23668e-07 0.0800874)
(7.13139e-06 4.49073e-08 0.0985799)
(-5.99841e-06 -1.07017e-06 0.0948468)
(2.21397e-06 -7.52416e-07 0.080071)
(-7.24462e-06 -5.49261e-07 0.0985965)
(-2.68827e-06 -4.59044e-07 0.0911245)
(2.78565e-06 9.73549e-08 0.0928422)
(8.41306e-06 1.41691e-07 0.10038)
(-8.55078e-06 -2.93905e-08 0.100726)
(2.64377e-06 5.76042e-07 0.0911154)
(-2.70731e-06 -1.01782e-07 0.0928479)
(-8.64431e-06 5.0403e-08 0.100389)
(-2.16009e-06 -5.52649e-07 0.0800902)
(7.05007e-06 -2.58022e-08 0.0985784)
(-5.9726e-06 1.07827e-06 0.0948467)
(2.09742e-06 8.0141e-07 0.08007)
(-7.15888e-06 4.90587e-07 0.0985975)
(-2.36409e-06 1.62893e-06 0.0836944)
(-3.49393e-06 3.4919e-06 0.0976923)
(1.22659e-06 -1.49536e-06 0.0808466)
(1.48286e-06 -1.22632e-06 0.0808508)
(3.44197e-06 -3.46762e-06 0.0976773)
(-1.18322e-06 1.53195e-06 0.0808605)
(-1.54191e-06 1.19298e-06 0.0808646)
(-1.05532e-05 5.12256e-06 0.100844)
(3.07972e-06 -1.88915e-06 0.0942104)
(1.53905e-05 -9.3713e-06 0.101721)
(-4.52888e-06 4.8856e-06 0.0991151)
(-1.54439e-05 8.85493e-06 0.101726)
(1.02711e-05 -5.17538e-06 0.100835)
(-3.03971e-06 1.91078e-06 0.094222)
(-5.09318e-06 1.05556e-05 0.100845)
(1.89032e-06 -3.06008e-06 0.0942135)
(9.37717e-06 -1.54313e-05 0.101722)
(-4.92093e-06 4.61647e-06 0.0991147)
(5.15501e-06 -1.02902e-05 0.100836)
(-1.88376e-06 3.07055e-06 0.0942248)
(-8.84642e-06 1.53888e-05 0.101726)
(-1.69114e-06 2.46565e-06 0.0836943)
(4.88068e-07 2.69203e-06 0.0911246)
(-9.83502e-08 -8.40332e-06 0.10038)
(-1.14644e-07 -2.62173e-06 0.0928418)
(5.48084e-08 8.50168e-06 0.100726)
(-5.9858e-07 -2.64486e-06 0.0911159)
(-3.71262e-08 8.6432e-06 0.100389)
(1.00016e-07 2.75438e-06 0.0928483)
(5.36679e-07 2.27265e-06 0.0800897)
(7.03388e-08 -7.12066e-06 0.0985797)
(-1.08119e-06 6.03237e-06 0.0948464)
(-7.54517e-07 -2.20799e-06 0.0800733)
(-5.32991e-07 7.23523e-06 0.0985961)
(-4.12592e-07 2.67966e-06 0.0911256)
(1.0791e-07 -8.40766e-06 0.10038)
(1.11889e-07 -2.68316e-06 0.0928423)
(-4.09644e-08 8.55272e-06 0.100726)
(5.83172e-07 -2.65897e-06 0.0911165)
(1.60752e-08 8.63991e-06 0.10039)
(-9.36697e-08 2.80174e-06 0.0928481)
(-5.207e-07 -6.58811e-07 0.102327)
(2.48947e-07 -2.92115e-07 0.102332)
(-2.53866e-07 2.52773e-07 0.102332)
(2.0361e-07 1.8704e-07 0.102334)
(-2.6783e-07 -2.85659e-07 0.102332)
(-1.68808e-07 1.8816e-07 0.102334)
(-5.91002e-07 5.62062e-07 0.102327)
(-2.73403e-07 -2.36643e-07 0.102332)
(2.19154e-07 2.8557e-07 0.102332)
(1.85186e-07 -2.17702e-07 0.102334)
(-2.12631e-07 2.82365e-07 0.102332)
(-1.65305e-07 -2.21329e-07 0.102334)
(-1.431e-05 -1.41833e-05 0.101895)
(-4.3272e-05 -4.33182e-05 0.102254)
(4.58276e-05 1.51798e-05 0.102145)
(1.50834e-05 4.57304e-05 0.102145)
(1.37474e-05 1.39385e-05 0.101891)
(-4.59424e-05 -1.53465e-05 0.102147)
(-1.53793e-05 -4.60019e-05 0.102147)
(-1.83011e-07 -5.2097e-05 0.102212)
(-1.11743e-07 1.60753e-05 0.101921)
(-1.20214e-07 4.937e-05 0.10223)
(6.33171e-08 -1.55139e-05 0.10199)
(2.85788e-07 5.10087e-05 0.102209)
(-6.95409e-09 -1.62518e-05 0.101925)
(1.90959e-07 -5.00725e-05 0.102232)
(-1.46794e-06 -5.56586e-05 0.10215)
(2.82729e-07 1.66095e-05 0.101672)
(5.04827e-06 5.74275e-05 0.102009)
(-4.03214e-06 -1.42016e-05 0.100997)
(-4.37517e-06 -5.65389e-05 0.102013)
(1.76831e-06 5.51962e-05 0.102146)
(-7.31565e-07 -1.66113e-05 0.101679)
(1.6284e-07 -5.20962e-05 0.102212)
(8.67907e-08 1.61019e-05 0.101921)
(1.54333e-07 4.93675e-05 0.10223)
(-5.6765e-08 -1.55258e-05 0.10199)
(-2.75447e-07 5.10002e-05 0.102209)
(-1.131e-08 -1.6254e-05 0.101925)
(-1.7397e-07 -5.00653e-05 0.102232)
(-5.20946e-05 -1.50365e-07 0.102212)
(1.61427e-05 -9.59999e-08 0.101921)
(4.93562e-05 -1.56613e-07 0.10223)
(-1.54752e-05 5.59537e-08 0.10199)
(5.10103e-05 2.488e-07 0.102209)
(-1.62012e-05 1.23898e-08 0.101925)
(-5.00804e-05 1.68377e-07 0.102232)
(-5.5793e-05 -1.4821e-06 0.10215)
(1.6682e-05 3.1838e-07 0.101672)
(5.7397e-05 4.96999e-06 0.102009)
(-1.41068e-05 -4.05163e-06 0.100997)