/*--------------------------------*- C++ -*----------------------------------*\
| =========                 |                                                 |
| \\      /  F ield         | OpenFOAM: The Open Source CFD Toolbox           |
|  \\    /   O peration     | Version:  v1912                                 |
|   \\  /    A nd           | Website:  www.openfoam.com                      |
|    \\/     M anipulation  |                                                 |
\*---------------------------------------------------------------------------*/
FoamFile
{
    version     2.0;
    format      ascii;
    class       volScalarField;
    location    "60";
    object      epsilon;
}
// * * * * * * * * * * * * * * * * * * * * * * * * * * * * * * * * * * * * * //

dimensions      [0 2 -3 0 0 0 0];


internalField   nonuniform List<scalar> 
171728
(
4.95564e-07
4.97334e-07
4.97334e-07
4.9957e-07
4.45573e-07
4.5375e-07
4.53752e-07
4.63724e-07
4.03752e-07
4.18522e-07
4.18526e-07
4.39419e-07
3.68364e-07
3.88551e-07
3.88558e-07
4.17659e-07
3.38013e-07
3.62094e-07
3.62102e-07
3.96066e-07
3.11641e-07
3.3826e-07
3.38268e-07
3.7456e-07
2.88471e-07
3.16627e-07
3.16636e-07
3.53687e-07
2.6792e-07
2.97014e-07
2.97023e-07
3.34125e-07
2.49565e-07
2.79364e-07
2.79373e-07
3.16468e-07
2.33158e-07
2.6369e-07
2.63699e-07
3.01143e-07
2.18278e-07
2.49862e-07
2.49872e-07
2.88415e-07
2.05153e-07
2.37957e-07
2.37968e-07
2.78106e-07
1.92446e-07
2.26237e-07
2.2625e-07
2.6863e-07
1.80486e-07
2.14658e-07
2.14672e-07
2.57641e-07
1.7416e-07
2.09996e-07
2.10011e-07
2.53617e-07
1.72448e-07
2.09781e-07
2.09797e-07
2.54684e-07
1.72287e-07
2.10046e-07
2.10062e-07
2.55416e-07
1.72306e-07
2.10188e-07
2.10203e-07
2.55677e-07
1.72325e-07
2.10263e-07
2.10279e-07
2.5582e-07
1.72341e-07
2.10307e-07
2.10324e-07
2.55896e-07
1.72354e-07
2.10334e-07
2.1035e-07
2.55936e-07
1.72356e-07
2.10352e-07
2.10367e-07
2.55944e-07
1.72357e-07
2.1036e-07
2.10375e-07
2.55942e-07
1.72357e-07
2.1036e-07
2.10374e-07
2.55944e-07
1.72356e-07
2.1036e-07
2.10374e-07
2.55946e-07
1.72356e-07
2.1036e-07
2.10375e-07
2.55945e-07
1.72356e-07
2.1036e-07
2.10374e-07
2.55943e-07
1.72356e-07
2.1036e-07
2.10374e-07
2.55943e-07
1.72356e-07
2.1036e-07
2.10374e-07
2.55945e-07
1.72356e-07
2.1036e-07
2.10379e-07
2.55944e-07
5.06418e-07
5.05584e-07
5.05583e-07
5.06418e-07
5.05583e-07
5.05583e-07
5.09648e-07
5.09648e-07
5.09648e-07
5.09648e-07
5.05585e-07
5.05584e-07
5.06419e-07
5.05585e-07
5.05583e-07
5.06418e-07
4.9957e-07
4.67246e-07
4.97335e-07
4.97339e-07
4.63735e-07
4.63743e-07
4.9957e-07
4.67243e-07
4.97339e-07
4.9734e-07
4.6374e-07
4.63745e-07
4.97336e-07
4.63731e-07
4.63736e-07
4.9957e-07
4.67249e-07
4.97338e-07
4.63732e-07
4.6374e-07
4.67249e-07
4.63723e-07
4.41422e-07
4.53755e-07
4.53763e-07
4.26751e-07
4.26759e-07
4.63722e-07
4.41415e-07
4.5376e-07
4.53767e-07
4.26751e-07
4.26763e-07
4.53757e-07
4.26742e-07
4.26753e-07
4.63725e-07
4.41427e-07
4.5376e-07
4.26746e-07
4.26753e-07
4.41425e-07
4.39415e-07
4.19274e-07
4.18531e-07
4.18539e-07
3.95678e-07
3.95684e-07
4.39413e-07
4.19266e-07
4.18531e-07
4.18544e-07
3.95674e-07
3.95691e-07
4.18535e-07
3.95665e-07
3.95681e-07
4.39421e-07
4.1928e-07
4.18533e-07
3.95671e-07
3.95675e-07
4.19278e-07
4.17654e-07
3.97628e-07
3.88566e-07
3.88572e-07
3.68455e-07
3.68459e-07
4.17648e-07
3.97618e-07
3.8856e-07
3.88579e-07
3.68446e-07
3.68467e-07
3.88569e-07
3.68438e-07
3.68458e-07
4.1766e-07
3.97634e-07
3.88562e-07
3.68446e-07
3.68447e-07
3.97632e-07
3.9606e-07
3.76063e-07
3.62112e-07
3.62116e-07
3.44022e-07
3.44025e-07
3.96053e-07
3.76053e-07
3.62101e-07
3.62124e-07
3.44009e-07
3.44033e-07
3.62115e-07
3.44003e-07
3.44025e-07
3.96067e-07
3.76069e-07
3.62103e-07
3.44012e-07
3.4401e-07
3.76068e-07
3.74555e-07
3.55086e-07
3.3828e-07
3.38283e-07
3.21865e-07
3.21867e-07
3.74547e-07
3.55076e-07
3.38266e-07
3.38291e-07
3.21849e-07
3.21875e-07
3.38284e-07
3.21844e-07
3.21868e-07
3.74561e-07
3.55092e-07
3.38268e-07
3.21853e-07
3.2185e-07
3.55091e-07
3.53682e-07
3.35371e-07
3.16649e-07
3.16651e-07
3.01753e-07
3.01754e-07
3.53674e-07
3.35361e-07
3.16632e-07
3.16659e-07
3.01734e-07
3.01761e-07
3.16652e-07
3.0173e-07
3.01755e-07
3.53688e-07
3.35377e-07
3.16634e-07
3.0174e-07
3.01735e-07
3.35376e-07
3.34119e-07
3.17516e-07
2.97037e-07
2.97039e-07
2.83622e-07
2.83623e-07
3.34112e-07
3.17506e-07
2.97018e-07
2.97046e-07
2.83602e-07
2.8363e-07
2.9704e-07
2.83599e-07
2.83624e-07
3.34126e-07
3.17522e-07
2.9702e-07
2.83608e-07
2.83603e-07
3.17521e-07
3.16462e-07
3.01956e-07
2.79389e-07
2.7939e-07
2.6744e-07
2.6744e-07
3.16454e-07
3.01946e-07
2.79369e-07
2.79397e-07
2.67418e-07
2.67447e-07
2.79391e-07
2.67416e-07
2.67441e-07
3.16469e-07
3.01963e-07
2.7937e-07
2.67425e-07
2.67419e-07
3.01962e-07
3.01136e-07
2.88987e-07
2.63716e-07
2.63716e-07
2.53206e-07
2.53206e-07
3.01129e-07
2.88976e-07
2.63694e-07
2.63724e-07
2.53183e-07
2.53213e-07
2.63717e-07
2.5318e-07
2.53206e-07
3.01144e-07
2.88994e-07
2.63695e-07
2.53189e-07
2.53183e-07
2.88993e-07
2.88407e-07
2.78445e-07
2.4989e-07
2.49891e-07
2.40773e-07
2.40772e-07
2.88399e-07
2.78434e-07
2.49868e-07
2.49898e-07
2.40748e-07
2.4078e-07
2.49891e-07
2.40745e-07
2.40773e-07
2.88415e-07
2.78452e-07
2.49868e-07
2.40754e-07
2.40749e-07
2.78452e-07
2.78097e-07
2.69064e-07
2.37987e-07
2.37987e-07
2.29408e-07
2.29412e-07
2.78089e-07
2.69055e-07
2.37962e-07
2.37995e-07
2.29387e-07
2.2942e-07
2.37987e-07
2.29382e-07
2.29408e-07
2.78106e-07
2.69074e-07
2.37963e-07
2.29395e-07
2.29384e-07
2.69074e-07
2.68618e-07
2.57917e-07
2.26266e-07
2.26271e-07
2.17099e-07
2.17104e-07
2.68612e-07
2.57909e-07
2.26245e-07
2.26279e-07
2.17078e-07
2.17113e-07
2.26266e-07
2.1707e-07
2.17098e-07
2.68629e-07
2.57931e-07
2.26242e-07
2.17083e-07
2.17075e-07
2.5793e-07
2.57625e-07
2.53268e-07
2.14686e-07
2.14694e-07
2.10531e-07
2.10537e-07
2.57619e-07
2.5325e-07
2.14666e-07
2.14702e-07
2.1051e-07
2.10543e-07
2.14688e-07
2.10495e-07
2.1053e-07
2.57638e-07
2.53273e-07
2.14665e-07
2.10511e-07
2.10507e-07
2.53278e-07
2.53611e-07
2.54057e-07
2.10031e-07
2.10039e-07
2.09779e-07
2.09788e-07
2.53593e-07
2.54038e-07
2.10012e-07
2.10045e-07
2.0976e-07
2.09793e-07
2.10032e-07
2.09749e-07
2.09781e-07
2.53614e-07
2.54062e-07
2.1001e-07
2.09765e-07
2.09758e-07
2.54069e-07
2.54681e-07
2.5493e-07
2.09822e-07
2.09831e-07
2.10035e-07
2.10043e-07
2.54662e-07
2.54908e-07
2.09802e-07
2.09835e-07
2.10014e-07
2.10046e-07
2.09825e-07
2.10003e-07
2.1004e-07
2.54683e-07
2.54932e-07
2.09802e-07
2.10019e-07
2.10017e-07
2.54951e-07
2.55402e-07
2.55231e-07
2.1009e-07
2.10097e-07
2.102e-07
2.10206e-07
2.55381e-07
2.5521e-07
2.10069e-07
2.10101e-07
2.10179e-07
2.10212e-07
2.10096e-07
2.10167e-07
2.10207e-07
2.55402e-07
2.55233e-07
2.10073e-07
2.10183e-07
2.10183e-07
2.55256e-07
2.5566e-07
2.55381e-07
2.1023e-07
2.10236e-07
2.10289e-07
2.10294e-07
2.55638e-07
2.5536e-07
2.10209e-07
2.10242e-07
2.10267e-07
2.10301e-07
2.10238e-07
2.10252e-07
2.10298e-07
2.5566e-07
2.55383e-07
2.10214e-07
2.10268e-07
2.10274e-07
2.55411e-07
2.55795e-07
2.55467e-07
2.10307e-07
2.10313e-07
2.1034e-07
2.10346e-07
2.55772e-07
2.55444e-07
2.10285e-07
2.1032e-07
2.10318e-07
2.10352e-07
2.10316e-07
2.103e-07
2.10348e-07
2.55795e-07
2.55467e-07
2.10292e-07
2.10316e-07
2.10325e-07
2.55493e-07
2.55875e-07
2.5552e-07
2.10351e-07
2.10358e-07
2.10369e-07
2.10379e-07
2.55852e-07
2.55496e-07
2.10329e-07
2.10364e-07
2.10348e-07
2.10384e-07
2.10359e-07
2.10329e-07
2.10378e-07
2.55874e-07
2.55519e-07
2.10336e-07
2.10345e-07
2.10354e-07
2.55536e-07
2.55925e-07
2.55543e-07
2.10379e-07
2.10389e-07
2.10391e-07
2.10402e-07
2.55901e-07
2.55517e-07
2.10359e-07
2.10394e-07
2.10371e-07
2.10406e-07
2.10388e-07
2.10348e-07
2.10397e-07
2.55922e-07
2.55539e-07
2.10364e-07
2.10364e-07
2.10374e-07
2.55548e-07
2.55944e-07
2.55539e-07
2.104e-07
2.10412e-07
2.10396e-07
2.10411e-07
2.55918e-07
2.55518e-07
2.1038e-07
2.10416e-07
2.10376e-07
2.10413e-07
2.10406e-07
2.1036e-07
2.10399e-07
2.55939e-07
2.5554e-07
2.10383e-07
2.10375e-07
2.10376e-07
2.55546e-07
2.5594e-07
2.55542e-07
2.10401e-07
2.10416e-07
2.10395e-07
2.1041e-07
2.5592e-07
2.5552e-07
2.10381e-07
2.10419e-07
2.10376e-07
2.10413e-07
2.10405e-07
2.1036e-07
2.10399e-07
2.55939e-07
2.55541e-07
2.10381e-07
2.10374e-07
2.10378e-07
2.55548e-07
2.55942e-07
2.55543e-07
2.104e-07
2.10416e-07
2.10394e-07
2.1041e-07
2.5592e-07
2.55521e-07
2.10381e-07
2.10418e-07
2.10376e-07
2.10413e-07
2.10405e-07
2.1036e-07
2.104e-07
2.55939e-07
2.55542e-07
2.10388e-07
2.10374e-07
2.10382e-07
2.5555e-07
2.55944e-07
2.55542e-07
2.104e-07
2.10416e-07
2.10394e-07
2.1041e-07
2.55922e-07
2.55521e-07
2.10381e-07
2.10419e-07
2.10376e-07
2.10413e-07
2.10405e-07
2.10361e-07
2.104e-07
2.5594e-07
2.55541e-07
2.10387e-07
2.10375e-07
2.1038e-07
2.55549e-07
2.55942e-07
2.55541e-07
2.10399e-07
2.10416e-07
2.10393e-07
2.1041e-07
2.55922e-07
2.55521e-07
2.10381e-07
2.10419e-07
2.10376e-07
2.10413e-07
2.10405e-07
2.1036e-07
2.10399e-07
2.5594e-07
2.55541e-07
2.10385e-07
2.10375e-07
2.1038e-07
2.55548e-07
2.55942e-07
2.55541e-07
2.10398e-07
2.10416e-07
2.10393e-07
2.1041e-07
2.55922e-07
2.55521e-07
2.10381e-07
2.10419e-07
2.10375e-07
2.10413e-07
2.10405e-07
2.1036e-07
2.10399e-07
2.5594e-07
2.55541e-07
2.10385e-07
2.10375e-07
2.1038e-07
2.55547e-07
2.55941e-07
2.5554e-07
2.10398e-07
2.10416e-07
2.10392e-07
2.1041e-07
2.55922e-07
2.55521e-07
2.1038e-07
2.10419e-07
2.10375e-07
2.10413e-07
2.10405e-07
2.1036e-07
2.104e-07
2.5594e-07
2.55541e-07
2.10387e-07
2.10374e-07
2.10381e-07
2.55549e-07
2.55941e-07
2.5554e-07
2.10397e-07
2.10416e-07
2.10392e-07
2.1041e-07
2.55922e-07
2.55521e-07
2.10381e-07
2.10419e-07
2.10375e-07
2.10413e-07
2.10405e-07
2.10361e-07
2.10399e-07
2.5594e-07
2.55541e-07
2.10386e-07
2.10377e-07
2.10381e-07
2.55548e-07
2.55939e-07
2.10396e-07
2.10415e-07
2.55922e-07
2.1038e-07
2.10416e-07
2.10403e-07
2.55939e-07
2.10384e-07
5.35663e-07
5.35601e-07
5.35655e-07
5.35655e-07
5.34573e-07
5.35516e-07
5.33635e-07
5.35654e-07
5.34573e-07
5.35516e-07
5.35654e-07
5.33635e-07
5.35255e-07
5.35988e-07
5.35988e-07
1.10853e-06
3.88012e-06
9.32814e-07
4.60455e-06
1.26056e-05
1.66007e-05
1.10867e-06
3.88036e-06
9.32839e-07
4.60491e-06
4.95565e-07
4.95565e-07
4.95565e-07
4.57233e-07
4.57233e-07
4.57233e-07
4.57233e-07
5.43225e-07
1.22288e-06
4.95564e-07
4.85542e-07
5.25274e-07
1.21062e-06
4.82304e-07
1.26072e-05
1.66032e-05
5.43244e-07
4.95564e-07
1.22285e-06
4.85542e-07
5.25252e-07
4.82304e-07
1.21061e-06
2.52019e-06
2.52088e-06
4.84193e-07
2.38092e-06
2.38131e-06
1.43206e-06
5.59279e-06
1.33009e-06
6.13402e-06
2.12889e-05
2.31085e-05
1.43248e-06
5.59345e-06
1.33012e-06
6.13467e-06
4.45573e-07
4.45574e-07
4.45574e-07
4.13543e-07
4.13543e-07
4.13544e-07
4.13544e-07
5.87313e-07
1.19312e-06
4.46441e-07
4.44305e-07
5.73983e-07
1.20211e-06
4.35698e-07
2.12912e-05
2.31122e-05
5.87331e-07
4.46442e-07
1.19313e-06
4.44308e-07
5.73991e-07
4.35699e-07
1.2022e-06
2.31498e-06
2.31548e-06
4.53488e-07
2.35742e-06
2.35788e-06
1.66526e-06
6.91773e-06
1.5976e-06
7.31789e-06
2.46435e-05
2.49368e-05
1.66535e-06
6.91854e-06
1.59744e-06
7.31884e-06
4.03752e-07
4.03754e-07
4.03754e-07
3.7669e-07
3.76689e-07
3.76691e-07
3.76691e-07
6.15966e-07
1.23988e-06
4.06557e-07
4.10624e-07
6.08734e-07
1.26243e-06
3.97742e-07
2.46467e-05
2.49403e-05
6.15983e-07
4.06558e-07
1.23998e-06
4.10629e-07
6.08749e-07
3.97744e-07
1.26259e-06
2.4782e-06
2.47868e-06
4.30172e-07
2.53669e-06
2.53718e-06
1.81487e-06
7.84685e-06
1.7747e-06
8.09763e-06
2.47415e-05
2.44239e-05
1.81501e-06
7.84779e-06
1.77469e-06
8.09894e-06
3.68364e-07
3.68366e-07
3.68365e-07
3.45192e-07
3.45191e-07
3.45194e-07
3.45193e-07
6.26813e-07
1.30981e-06
3.73494e-07
3.81654e-07
6.25362e-07
1.33039e-06
3.66046e-07
2.4744e-05
2.44273e-05
6.26825e-07
3.73495e-07
1.3099e-06
3.81661e-07
6.25374e-07
3.66049e-07
1.33056e-06
2.63859e-06
2.63908e-06
4.08458e-07
2.68225e-06
2.68275e-06
1.89556e-06
8.39674e-06
1.87584e-06
8.52864e-06
2.36968e-05
2.32572e-05
1.89573e-06
8.39786e-06
1.87586e-06
8.53012e-06
3.38013e-07
3.38016e-07
3.38015e-07
3.17912e-07
3.1791e-07
3.17913e-07
3.17912e-07
6.22703e-07
1.36896e-06
3.45258e-07
3.55914e-07
6.26011e-07
1.38411e-06
3.38787e-07
2.36989e-05
2.326e-05
6.22717e-07
3.45259e-07
1.36904e-06
3.55922e-07
6.26024e-07
3.3879e-07
1.38428e-06
2.76571e-06
2.76624e-06
3.86817e-07
2.80711e-06
2.80765e-06
1.93262e-06
8.66468e-06
1.92448e-06
8.71934e-06
2.25054e-05
2.21116e-05
1.93279e-06
8.66598e-06
1.92451e-06
8.72082e-06
3.11642e-07
3.11645e-07
3.11644e-07
2.94004e-07
2.94002e-07
2.94006e-07
2.94004e-07
6.09505e-07
1.41333e-06
3.20513e-07
3.32656e-07
6.15982e-07
1.42503e-06
3.14769e-07
2.25071e-05
2.21139e-05
6.09519e-07
3.20514e-07
1.41341e-06
3.32665e-07
6.15994e-07
3.14772e-07
1.42519e-06
2.89656e-06
2.89715e-06
3.65463e-07
2.94446e-06
2.94508e-06
1.95064e-06
8.76102e-06
1.94631e-06
8.77268e-06
2.14806e-05
2.11693e-05
1.95082e-06
8.76247e-06
1.94635e-06
8.7741e-06
2.88471e-07
2.88475e-07
2.88474e-07
2.72834e-07
2.72832e-07
2.72836e-07
2.72834e-07
5.92486e-07
1.45052e-06
2.98436e-07
3.11538e-07
5.99979e-07
1.46199e-06
2.93269e-07
2.14822e-05
2.11715e-05
5.92501e-07
2.98438e-07
1.45058e-06
3.11547e-07
5.99992e-07
2.93272e-07
1.46216e-06
3.04962e-06
3.05031e-06
3.45036e-07
3.10608e-06
3.10682e-06
1.96823e-06
8.77134e-06
1.96223e-06
8.76622e-06
2.0677e-05
2.04443e-05
1.9684e-06
8.77276e-06
1.96227e-06
8.76764e-06
2.67921e-07
2.67925e-07
2.67924e-07
2.53976e-07
2.53974e-07
2.53978e-07
2.53977e-07
5.76068e-07
1.48988e-06
2.78528e-07
2.92423e-07
5.82881e-07
1.50387e-06
2.7386e-07
2.06784e-05
2.04466e-05
5.76084e-07
2.7853e-07
1.48995e-06
2.92433e-07
5.82896e-07
2.73864e-07
1.50403e-06
3.22683e-06
3.22766e-06
3.26185e-07
3.29035e-06
3.29127e-06
1.99803e-06
8.75263e-06
1.98688e-06
8.74648e-06
2.00731e-05
1.99049e-05
1.99818e-06
8.75408e-06
1.9869e-06
8.74793e-06
2.49565e-07
2.49569e-07
2.49568e-07
2.37089e-07
2.37085e-07
2.37089e-07
2.37088e-07
5.63514e-07
1.53839e-06
2.60494e-07
2.75256e-07
5.6843e-07
1.5564e-06
2.56258e-07
2.00744e-05
1.99072e-05
5.63531e-07
2.60495e-07
1.53846e-06
2.75265e-07
5.68447e-07
2.56262e-07
1.55657e-06
3.42265e-06
3.42367e-06
3.09432e-07
3.49061e-06
3.4917e-06
2.04724e-06
8.73723e-06
2.02899e-06
8.73499e-06
1.96322e-05
1.95146e-05
2.04738e-06
8.73873e-06
2.02901e-06
8.73653e-06
2.3316e-07
2.33164e-07
2.33163e-07
2.21882e-07
2.2188e-07
2.21884e-07
2.21882e-07
5.57021e-07
1.59966e-06
2.442e-07
2.60091e-07
5.59203e-07
1.62238e-06
2.40386e-07
1.96335e-05
1.95167e-05
5.57042e-07
2.44202e-07
1.59974e-06
2.601e-07
5.59222e-07
2.4039e-07
1.62256e-06
3.62853e-06
3.62967e-06
2.95158e-07
3.69888e-06
3.7002e-06
2.11681e-06
8.73386e-06
2.09271e-06
8.73417e-06
1.93147e-05
1.92406e-05
2.11696e-06
8.73545e-06
2.09273e-06
8.73578e-06
2.18279e-07
2.18283e-07
2.18282e-07
2.0827e-07
2.08265e-07
2.08269e-07
2.08267e-07
5.57256e-07
1.6742e-06
2.2939e-07
2.46674e-07
5.56876e-07
1.69997e-06
2.25915e-07
1.93163e-05
1.92423e-05
5.57277e-07
2.29392e-07
1.67432e-06
2.46684e-07
5.56897e-07
2.25919e-07
1.70019e-06
3.83583e-06
3.83716e-06
2.83413e-07
3.9036e-06
3.90516e-06
2.20398e-06
8.72826e-06
2.17522e-06
8.72497e-06
1.9139e-05
1.9108e-05
2.20419e-06
8.73003e-06
2.17518e-06
8.72678e-06
2.05156e-07
2.05161e-07
2.05159e-07
1.95734e-07
1.9573e-07
1.95734e-07
1.95732e-07
5.62867e-07
1.75355e-06
2.16234e-07
2.352e-07
5.60918e-07
1.77492e-06
2.13163e-07
1.91408e-05
1.91097e-05
5.62888e-07
2.16235e-07
1.75371e-06
2.35212e-07
5.60934e-07
2.13166e-07
1.77513e-06
4.01902e-06
4.02056e-06
2.73892e-07
4.06569e-06
4.0674e-06
2.2415e-06
8.71445e-06
2.23808e-06
8.70864e-06
1.90728e-05
1.90711e-05
2.24155e-06
8.71639e-06
2.23797e-06
8.71039e-06
1.92448e-07
1.92453e-07
1.9245e-07
1.8309e-07
1.83084e-07
1.83088e-07
1.83085e-07
5.61513e-07
1.80661e-06
2.03495e-07
2.23026e-07
5.64468e-07
1.81448e-06
2.00143e-07
1.90746e-05
1.90728e-05
5.61515e-07
2.03496e-07
1.80671e-06
2.23039e-07
5.64471e-07
2.00145e-07
1.81465e-06
4.1296e-06
4.13132e-06
2.63479e-07
4.14634e-06
4.14803e-06
2.25856e-06
8.70443e-06
2.25223e-06
8.70413e-06
1.90746e-05
1.90821e-05
2.2587e-06
8.70605e-06
2.25224e-06
8.70569e-06
1.80491e-07
1.80495e-07
1.80493e-07
1.75171e-07
1.7517e-07
1.75174e-07
1.75171e-07
5.57406e-07
1.82626e-06
1.91205e-07
2.12768e-07
5.57856e-07
1.83013e-06
1.89027e-07
1.90757e-05
1.90828e-05
5.57443e-07
1.91207e-07
1.82637e-06
2.12783e-07
5.57891e-07
1.89031e-07
1.8303e-06
4.16668e-06
4.16831e-06
2.54449e-07
4.17207e-06
4.17373e-06
2.2729e-06
8.70573e-06
2.27017e-06
8.70553e-06
1.90882e-05
1.90921e-05
2.27309e-06
8.70748e-06
2.2702e-06
8.70736e-06
1.74165e-07
1.74169e-07
1.74166e-07
1.72651e-07
1.72649e-07
1.72653e-07
1.72649e-07
5.61761e-07
1.8408e-06
1.85145e-07
2.09789e-07
5.60224e-07
1.84333e-06
1.84563e-07
1.90887e-05
1.90924e-05
5.61802e-07
1.85147e-07
1.84092e-06
2.09805e-07
5.6027e-07
1.84567e-07
1.84349e-06
4.18052e-06
4.18215e-06
2.53394e-07
4.18218e-06
4.18387e-06
2.27433e-06
8.70517e-06
2.27514e-06
8.70477e-06
1.9091e-05
1.90923e-05
2.27449e-06
8.70701e-06
2.27526e-06
8.70654e-06
1.72456e-07
1.7246e-07
1.72458e-07
1.72287e-07
1.72283e-07
1.72287e-07
1.72287e-07
5.64655e-07
1.8472e-06
1.83863e-07
2.09871e-07
5.6442e-07
1.84633e-06
1.83838e-07
1.9091e-05
1.90922e-05
5.64706e-07
1.83866e-07
1.84735e-06
2.09888e-07
5.64471e-07
1.83841e-07
1.84653e-06
4.18196e-06
4.18363e-06
2.54626e-07
4.18056e-06
4.18223e-06
2.27436e-06
8.70483e-06
2.27498e-06
8.70473e-06
1.90909e-05
1.90925e-05
2.27449e-06
8.70665e-06
2.27505e-06
8.70654e-06
1.72291e-07
1.72296e-07
1.72296e-07
1.72303e-07
1.72299e-07
1.72303e-07
1.72303e-07
5.65347e-07
1.84767e-06
1.83841e-07
2.10105e-07
5.65462e-07
1.84665e-06
1.83863e-07
1.90907e-05
1.90924e-05
5.65388e-07
1.83844e-07
1.8478e-06
2.10121e-07
5.65506e-07
1.83866e-07
1.84682e-06
4.18068e-06
4.18235e-06
2.55137e-07
4.17996e-06
4.18163e-06
2.27468e-06
8.70504e-06
2.27526e-06
8.70496e-06
1.90913e-05
1.90924e-05
2.27482e-06
8.70689e-06
2.27534e-06
8.70679e-06
1.72314e-07
1.72318e-07
1.72317e-07
1.72321e-07
1.72325e-07
1.72329e-07
1.72329e-07
5.65724e-07
1.84798e-06
1.83896e-07
2.10221e-07
5.65911e-07
1.84694e-06
1.83918e-07
1.90912e-05
1.90928e-05
5.65764e-07
1.83899e-07
1.84809e-06
2.10237e-07
5.65949e-07
1.83921e-07
1.84709e-06
4.18066e-06
4.1823e-06
2.55344e-07
4.18005e-06
4.1817e-06
2.27489e-06
8.70516e-06
2.27553e-06
8.70505e-06
1.90912e-05
1.90929e-05
2.27505e-06
8.70708e-06
2.27562e-06
8.70693e-06
1.72339e-07
1.72343e-07
1.72343e-07
1.72338e-07
1.72347e-07
1.72351e-07
1.72351e-07
5.65938e-07
1.84821e-06
1.8394e-07
2.10284e-07
5.6618e-07
1.84712e-06
1.83955e-07
1.90915e-05
1.9093e-05
5.65983e-07
1.83943e-07
1.84831e-06
2.103e-07
5.66222e-07
1.83959e-07
1.84727e-06
4.1808e-06
4.18244e-06
2.55459e-07
4.18015e-06
4.18181e-06
2.27497e-06
8.70528e-06
2.27566e-06
8.70518e-06
1.90916e-05
1.90929e-05
2.27513e-06
8.70714e-06
2.27576e-06
8.70696e-06
1.72362e-07
1.72366e-07
1.72366e-07
1.72352e-07
1.72363e-07
1.72368e-07
1.72367e-07
5.66043e-07
1.84832e-06
1.83967e-07
2.10321e-07
5.6632e-07
1.8472e-06
1.83978e-07
1.90916e-05
1.90931e-05
5.66091e-07
1.8397e-07
1.84842e-06
2.10337e-07
5.66367e-07
1.83982e-07
1.84736e-06
4.18084e-06
4.18249e-06
2.55519e-07
4.18018e-06
4.18185e-06
2.27499e-06
8.70536e-06
2.27569e-06
8.70522e-06
1.90913e-05
1.90925e-05
2.27515e-06
8.7071e-06
2.27579e-06
8.70699e-06
1.72373e-07
1.72378e-07
1.72376e-07
1.72356e-07
1.72368e-07
1.72372e-07
1.72371e-07
5.66076e-07
1.84836e-06
1.83985e-07
2.10344e-07
5.66377e-07
1.84722e-06
1.83996e-07
1.90916e-05
1.90932e-05
5.66126e-07
1.83988e-07
1.84847e-06
2.1036e-07
5.66426e-07
1.83999e-07
1.84738e-06
4.18086e-06
4.18252e-06
2.55547e-07
4.18019e-06
4.18186e-06
2.275e-06
8.70531e-06
2.2757e-06
8.70509e-06
1.90911e-05
1.90925e-05
2.27515e-06
8.70723e-06
2.2758e-06
8.70711e-06
1.72377e-07
1.7238e-07
1.72378e-07
1.72357e-07
1.7237e-07
1.72374e-07
1.72371e-07
5.66083e-07
1.84837e-06
1.83997e-07
2.10361e-07
5.66388e-07
1.84723e-06
1.84007e-07
1.90916e-05
1.90932e-05
5.6613e-07
1.84e-07
1.84848e-06
2.10376e-07
5.66435e-07
1.84009e-07
1.84739e-06
4.18087e-06
4.18253e-06
2.55547e-07
4.1802e-06
4.18187e-06
2.275e-06
8.70521e-06
2.2757e-06
8.705e-06
1.90912e-05
1.90926e-05
2.27515e-06
8.70732e-06
2.2758e-06
8.70719e-06
1.72376e-07
1.72381e-07
1.72378e-07
1.72357e-07
1.7237e-07
1.72374e-07
1.72371e-07
5.66082e-07
1.84837e-06
1.83997e-07
2.10365e-07
5.66389e-07
1.84724e-06
1.84005e-07
1.90916e-05
1.90931e-05
5.6613e-07
1.84001e-07
1.84849e-06
2.1038e-07
5.66436e-07
1.84008e-07
1.84739e-06
4.18087e-06
4.18253e-06
2.55547e-07
4.1802e-06
4.18187e-06
2.27501e-06
8.70513e-06
2.27571e-06
8.70494e-06
1.90912e-05
1.90926e-05
2.27515e-06
8.7074e-06
2.2758e-06
8.70726e-06
1.72376e-07
1.7238e-07
1.72378e-07
1.72357e-07
1.7237e-07
1.72374e-07
1.72372e-07
5.66083e-07
1.84837e-06
1.83998e-07
2.10366e-07
5.66389e-07
1.84724e-06
1.84005e-07
1.90916e-05
1.90932e-05
5.66131e-07
1.84001e-07
1.84849e-06
2.1038e-07
5.66437e-07
1.84008e-07
1.84739e-06
4.18087e-06
4.18253e-06
2.55549e-07
4.1802e-06
4.18187e-06
2.27499e-06
8.70508e-06
2.2757e-06
8.70489e-06
1.90912e-05
1.90926e-05
2.27515e-06
8.70746e-06
2.2758e-06
8.70732e-06
1.72376e-07
1.7238e-07
1.72378e-07
1.72357e-07
1.7237e-07
1.72374e-07
1.72372e-07
5.66082e-07
1.84837e-06
1.83998e-07
2.10365e-07
5.66389e-07
1.84724e-06
1.84005e-07
1.90916e-05
1.90932e-05
5.6613e-07
1.84001e-07
1.84849e-06
2.1038e-07
5.66437e-07
1.84008e-07
1.84739e-06
4.18087e-06
4.18253e-06
2.55549e-07
4.1802e-06
4.18187e-06
2.275e-06
8.70504e-06
2.2757e-06
8.70485e-06
1.90912e-05
1.90926e-05
2.27515e-06
8.70749e-06
2.2758e-06
8.70734e-06
1.72376e-07
1.72381e-07
1.72378e-07
1.72357e-07
1.7237e-07
1.72374e-07
1.72372e-07
5.66082e-07
1.84837e-06
1.83998e-07
2.10366e-07
5.66389e-07
1.84724e-06
1.84005e-07
1.90916e-05
1.90932e-05
5.66131e-07
1.84001e-07
1.84849e-06
2.1038e-07
5.66437e-07
1.84008e-07
1.84739e-06
4.18087e-06
4.18253e-06
2.55548e-07
4.1802e-06
4.18187e-06
2.275e-06
8.70502e-06
2.2757e-06
8.70483e-06
1.90912e-05
1.90926e-05
2.27515e-06
8.70751e-06
2.2758e-06
8.70735e-06
1.72376e-07
1.72381e-07
1.72378e-07
1.72356e-07
1.7237e-07
1.72374e-07
1.72372e-07
5.66082e-07
1.84837e-06
1.83998e-07
2.10366e-07
5.66389e-07
1.84724e-06
1.84007e-07
1.90916e-05
1.90931e-05
5.66131e-07
1.84001e-07
1.84848e-06
2.1038e-07
5.66438e-07
1.84008e-07
1.84739e-06
4.18087e-06
4.18253e-06
2.55547e-07
4.1802e-06
4.18187e-06
2.27499e-06
8.70501e-06
2.27569e-06
8.70482e-06
1.90912e-05
1.90926e-05
2.27515e-06
8.70752e-06
2.2758e-06
8.70735e-06
1.72376e-07
1.72381e-07
1.72378e-07
1.72356e-07
1.7237e-07
1.72374e-07
1.72372e-07
5.66082e-07
1.84837e-06
1.84e-07
2.10366e-07
5.66389e-07
1.84724e-06
1.84007e-07
1.90916e-05
1.90932e-05
5.66132e-07
1.84001e-07
1.84849e-06
2.1038e-07
5.66439e-07
1.84008e-07
1.84739e-06
4.18087e-06
4.18253e-06
2.55548e-07
4.1802e-06
4.18187e-06
2.275e-06
8.70499e-06
2.2757e-06
8.70481e-06
1.90912e-05
1.90926e-05
2.27515e-06
8.70752e-06
2.2758e-06
8.70736e-06
1.72376e-07
1.7238e-07
1.72378e-07
1.72356e-07
1.7237e-07
1.72374e-07
1.72372e-07
5.66082e-07
1.84837e-06
1.83999e-07
2.10366e-07
5.66389e-07
1.84724e-06
1.84006e-07
1.90916e-05
1.90932e-05
5.66133e-07
1.84001e-07
1.84849e-06
2.1038e-07
5.66439e-07
1.84008e-07
1.84739e-06
4.18087e-06
4.18253e-06
2.55549e-07
4.1802e-06
4.18187e-06
2.27527e-06
8.70499e-06
2.2757e-06
8.7048e-06
1.90912e-05
1.90914e-05
2.2754e-06
8.70752e-06
2.2758e-06
8.70736e-06
1.72376e-07
1.72378e-07
1.72376e-07
5.66068e-07
1.84837e-06
1.83998e-07
2.10364e-07
5.66389e-07
1.84774e-06
1.84004e-07
1.90916e-05
1.9093e-05
5.65728e-07
1.84006e-07
1.84849e-06
2.10513e-07
5.6644e-07
1.84181e-07
1.84658e-06
4.18087e-06
4.18253e-06
2.55602e-07
4.17802e-06
4.17969e-06
5.35255e-07
5.35992e-07
5.35989e-07
1.09168e-05
5.81344e-07
1.09181e-05
5.81336e-07
5.28208e-07
2.43157e-06
2.43251e-06
5.40836e-07
5.40833e-07
5.34573e-07
5.35517e-07
5.33636e-07
5.35654e-07
5.34573e-07
5.35517e-07
5.33635e-07
5.35654e-07
5.30399e-07
3.47213e-06
5.68202e-07
8.20567e-07
5.30398e-07
3.47217e-06
5.68201e-07
8.20533e-07
5.29521e-07
5.2838e-07
1.17047e-06
5.09602e-07
5.32663e-07
5.28353e-07
5.19185e-07
5.29521e-07
5.2838e-07
1.17061e-06
5.09601e-07
5.32662e-07
5.28353e-07
5.19188e-07
5.35255e-07
5.35991e-07
5.35989e-07
1.0917e-05
5.81322e-07
5.28208e-07
2.43207e-06
2.43219e-06
5.40836e-07
5.40832e-07
1.09177e-05
5.81317e-07
5.34573e-07
5.35516e-07
5.33636e-07
5.35654e-07
5.34573e-07
5.35517e-07
5.35654e-07
5.33636e-07
5.30398e-07
3.47248e-06
5.682e-07
8.20715e-07
5.29521e-07
5.28381e-07
1.17074e-06
5.09602e-07
5.32662e-07
5.28353e-07
5.19194e-07
5.30398e-07
3.47257e-06
5.68198e-07
8.20617e-07
5.29521e-07
5.2838e-07
5.09602e-07
1.17064e-06
5.28353e-07
5.32661e-07
5.19188e-07
5.35663e-07
5.35601e-07
5.35655e-07
5.35655e-07
5.35663e-07
5.35601e-07
5.35655e-07
5.35655e-07
5.35663e-07
5.35601e-07
5.35655e-07
5.35655e-07
5.28434e-07
5.28376e-07
5.09724e-07
5.09724e-07
5.28408e-07
5.28408e-07
5.09781e-07
5.28434e-07
5.28376e-07
5.09724e-07
5.09724e-07
5.28408e-07
5.28408e-07
5.09781e-07
5.28434e-07
5.28376e-07
5.09724e-07
5.09725e-07
5.28408e-07
5.28408e-07
5.09781e-07
5.28434e-07
5.28376e-07
5.09724e-07
5.09724e-07
5.28408e-07
5.28408e-07
5.09781e-07
5.34573e-07
5.35517e-07
5.35654e-07
5.33636e-07
5.29521e-07
5.2838e-07
1.17068e-06
5.09602e-07
5.32661e-07
5.28353e-07
5.19192e-07
5.30398e-07
3.47237e-06
5.68194e-07
8.2062e-07
5.29521e-07
5.2838e-07
5.09602e-07
1.17055e-06
5.28353e-07
5.32661e-07
5.19188e-07
5.30398e-07
3.47251e-06
5.68198e-07
8.20564e-07
5.35255e-07
5.35989e-07
5.35988e-07
1.09183e-05
5.81333e-07
5.28208e-07
2.43234e-06
2.43219e-06
5.40832e-07
5.40829e-07
1.09181e-05
5.81312e-07
5.34573e-07
5.35516e-07
5.35654e-07
5.33635e-07
5.29521e-07
5.2838e-07
5.09602e-07
1.17061e-06
5.28353e-07
5.3266e-07
5.19191e-07
5.29521e-07
5.2838e-07
5.09602e-07
1.17074e-06
5.28353e-07
5.32662e-07
5.19194e-07
5.30398e-07
3.47253e-06
5.68192e-07
8.20692e-07
5.30398e-07
3.47254e-06
5.68203e-07
8.2078e-07
5.28208e-07
2.43199e-06
2.43264e-06
5.4083e-07
5.40831e-07
1.0918e-05
5.81316e-07
1.09182e-05
5.8133e-07
1.26054e-05
1.65998e-05
1.2607e-05
1.66024e-05
2.52015e-06
2.52088e-06
4.84192e-07
2.38055e-06
2.38131e-06
2.05291e-05
1.76921e-05
2.05326e-05
1.7695e-05
4.79311e-07
2.30851e-06
2.30917e-06
2.34317e-06
2.34392e-06
1.10839e-06
3.8801e-06
9.32926e-07
4.60444e-06
5.4321e-07
1.22275e-06
4.95563e-07
4.85544e-07
5.25287e-07
1.21056e-06
4.82304e-07
5.43207e-07
1.22293e-06
4.95563e-07
4.8555e-07
5.25294e-07
1.21079e-06
4.82304e-07
1.16242e-06
5.40589e-06
4.80968e-06
1.28119e-06
1.16253e-06
5.40587e-06
4.80975e-06
1.28121e-06
5.51149e-07
4.74327e-07
1.19173e-06
4.57771e-07
1.20561e-06
4.69717e-07
5.66586e-07
5.51152e-07
4.74335e-07
1.19191e-06
4.57771e-07
1.20579e-06
4.69717e-07
5.66582e-07
2.52062e-06
2.52036e-06
4.8419e-07
2.38117e-06
2.38069e-06
1.26061e-05
1.6601e-05
2.05303e-05
1.76938e-05
4.79311e-07
2.30902e-06
2.30873e-06
2.34367e-06
2.34351e-06
2.05304e-05
1.76928e-05
5.43244e-07
1.22301e-06
4.95564e-07
4.85548e-07
5.25287e-07
1.21082e-06
4.82304e-07
1.10862e-06
3.8806e-06
9.32688e-07
4.60527e-06
5.43239e-07
4.95564e-07
1.22297e-06
4.85552e-07
5.25276e-07
4.82304e-07
1.21082e-06
1.16243e-06
5.40637e-06
4.81002e-06
1.28136e-06
5.51151e-07
4.74333e-07
1.19192e-06
4.57771e-07
1.2058e-06
4.69717e-07
5.66603e-07
1.16242e-06
5.4069e-06
4.81046e-06
1.28136e-06
5.51151e-07
4.74337e-07
4.57772e-07
1.19197e-06
4.69718e-07
1.20585e-06
5.6661e-07
1.10855e-06
3.88008e-06
9.32781e-07
4.60478e-06
5.43223e-07
4.95564e-07
1.22284e-06
4.85544e-07
5.25263e-07
4.82304e-07
1.21067e-06
1.10857e-06
3.8806e-06
9.32618e-07
4.6049e-06
5.51147e-07
4.74324e-07
1.19173e-06
4.5777e-07
1.20563e-06
4.69716e-07
5.66589e-07
1.16246e-06
5.406e-06
4.80944e-06
1.28129e-06
5.51145e-07
4.74328e-07
4.57771e-07
1.19179e-06
4.69717e-07
1.20561e-06
5.66588e-07
1.16237e-06
5.40631e-06
4.81033e-06
1.28126e-06
2.5208e-06
2.5203e-06
4.84193e-07
2.38129e-06
2.38055e-06
1.26069e-05
1.66014e-05
2.05337e-05
1.76953e-05
4.79311e-07
2.30923e-06
2.30868e-06
2.34385e-06
2.34336e-06
2.05312e-05
1.76946e-05
5.43253e-07
4.95564e-07
1.22302e-06
4.85549e-07
5.25264e-07
4.82304e-07
1.21082e-06
1.10882e-06
3.88056e-06
9.32555e-07
4.60499e-06
1.10888e-06
3.88045e-06
9.32673e-07
4.60488e-06
5.51145e-07
4.74325e-07
4.57771e-07
1.19178e-06
4.69717e-07
1.20567e-06
5.66602e-07
5.51145e-07
4.74332e-07
4.57771e-07
1.19191e-06
4.69717e-07
1.20578e-06
5.6661e-07
1.1622e-06
5.40656e-06
4.8103e-06
1.28139e-06
1.16223e-06
5.40653e-06
4.81004e-06
1.28142e-06
1.26065e-05
1.66013e-05
1.2607e-05
1.6602e-05
4.79311e-07
2.30864e-06
2.30914e-06
2.34307e-06
2.34386e-06
2.05305e-05
1.76941e-05
2.05321e-05
1.76954e-05
2.12869e-05
2.31069e-05
2.12907e-05
2.3111e-05
2.31484e-06
2.31552e-06
4.53484e-07
2.35715e-06
2.35775e-06
2.44695e-05
2.35374e-05
2.44731e-05
2.3541e-05
4.50894e-07
2.44681e-06
2.4474e-06
2.38533e-06
2.38591e-06
1.43206e-06
5.59289e-06
1.33007e-06
6.13419e-06
5.87312e-07
1.19311e-06
4.46442e-07
4.44311e-07
5.73983e-07
1.20213e-06
4.35699e-07
5.87307e-07
1.19326e-06
4.46442e-07
4.4432e-07
5.7398e-07
1.20231e-06
4.35699e-07
1.47613e-06
6.77577e-06
6.30059e-06
1.5594e-06
1.47609e-06
6.7759e-06
6.30065e-06
1.55938e-06
5.93594e-07
4.35328e-07
1.22856e-06
4.15798e-07
1.20997e-06
4.25498e-07
6.03947e-07
5.93586e-07
4.35337e-07
1.22867e-06
4.15799e-07
1.21013e-06
4.25498e-07
6.03943e-07
2.31529e-06
2.31502e-06
4.5348e-07
2.35758e-06
2.35726e-06
2.12877e-05
2.3108e-05
2.44705e-05
2.35393e-05
4.50892e-07
2.44725e-06
2.44673e-06
2.38573e-06
2.38569e-06
2.44703e-05
2.35383e-05
5.8733e-07
1.19331e-06
4.46442e-07
4.44314e-07
5.73998e-07
1.20231e-06
4.357e-07
1.43249e-06
5.5938e-06
1.33013e-06
6.13542e-06
5.87332e-07
4.46444e-07
1.19333e-06
4.44323e-07
5.74e-07
4.357e-07
1.20238e-06
1.47583e-06
6.77646e-06
6.30136e-06
1.55971e-06
5.93608e-07
4.35331e-07
1.22868e-06
4.158e-07
1.21013e-06
4.25498e-07
6.03961e-07
1.47585e-06
6.77725e-06
6.30173e-06
1.55974e-06
5.93614e-07
4.35341e-07
4.15801e-07
1.22874e-06
4.255e-07
1.21026e-06
6.0397e-07
1.43223e-06
5.59277e-06
1.33005e-06
6.13424e-06
5.87318e-07
4.46442e-07
1.19315e-06
4.44313e-07
5.73986e-07
4.35699e-07
1.20224e-06
1.43211e-06
5.59346e-06
1.33016e-06
6.1347e-06
5.9359e-07
4.35321e-07
1.22847e-06
4.15797e-07
1.20998e-06
4.25497e-07