/*--------------------------------*- C++ -*----------------------------------*\
| =========                 |                                                 |
| \\      /  F ield         | OpenFOAM: The Open Source CFD Toolbox           |
|  \\    /   O peration     | Version:  v1912                                 |
|   \\  /    A nd           | Website:  www.openfoam.com                      |
|    \\/     M anipulation  |                                                 |
\*---------------------------------------------------------------------------*/
FoamFile
{
    version     2.0;
    format      ascii;
    class       volScalarField;
    location    "60";
    object      p;
}
// * * * * * * * * * * * * * * * * * * * * * * * * * * * * * * * * * * * * * //

dimensions      [0 2 -2 0 0 0 0];


internalField   nonuniform List<scalar> 
171728
(
0.00367109
0.00367138
0.00367138
0.00367427
0.00361473
0.00361545
0.00361545
0.00361861
0.00356439
0.00356438
0.00356438
0.00356708
0.00351202
0.00351203
0.00351202
0.00351473
0.00346069
0.00346069
0.00346069
0.00346335
0.00341071
0.00341072
0.00341072
0.00341334
0.00336217
0.0033622
0.0033622
0.00336477
0.00331493
0.00331497
0.00331497
0.00331751
0.00326879
0.00326883
0.00326884
0.00327135
0.00322356
0.00322361
0.00322361
0.00322608
0.00317917
0.00317919
0.00317919
0.00318163
0.00313581
0.00313577
0.00313577
0.00313813
0.00309423
0.00309416
0.00309416
0.00309643
0.00305489
0.00305481
0.00305481
0.00305702
0.00301664
0.00301657
0.00301657
0.00301878
0.00297875
0.00297869
0.00297869
0.0029809
0.002941
0.00294094
0.00294094
0.00294314
0.00290328
0.00290322
0.00290322
0.00290542
0.00286556
0.0028655
0.0028655
0.0028677
0.00282784
0.00282778
0.00282778
0.00282998
0.00279012
0.00279007
0.00279007
0.00279226
0.0027524
0.00275235
0.00275235
0.00275455
0.00271469
0.00271463
0.00271463
0.00271683
0.00267697
0.00267692
0.00267692
0.00267911
0.00263925
0.0026392
0.0026392
0.0026414
0.00260154
0.00260148
0.00260148
0.00260368
0.00256382
0.00256376
0.00256376
0.00256596
0.00252609
0.00252604
0.00252604
0.00252824
0.00248837
0.00248832
0.00248832
0.00249051
0.00245064
0.00245059
0.00245059
0.00245279
0.00368431
0.00368459
0.00368458
0.00368431
0.00368459
0.00368459
0.0036853
0.0036853
0.00368531
0.0036853
0.00368459
0.00368459
0.00368431
0.00368459
0.00368459
0.00368431
0.00367427
0.00362532
0.00367137
0.00367137
0.00362731
0.00362731
0.00367427
0.00362532
0.00367138
0.00367137
0.0036273
0.00362731
0.00367137
0.0036273
0.00362731
0.00367427
0.00362532
0.00367138
0.0036273
0.0036273
0.00362532
0.00361861
0.00357422
0.00361545
0.00361545
0.00357749
0.00357749
0.00361861
0.00357423
0.00361545
0.00361545
0.00357749
0.00357749
0.00361545
0.00357749
0.00357749
0.00361861
0.00357422
0.00361545
0.00357749
0.00357749
0.00357423
0.00356708
0.00352182
0.00356438
0.00356438
0.00352504
0.00352504
0.00356708
0.00352182
0.00356438
0.00356438
0.00352504
0.00352504
0.00356438
0.00352504
0.00352504
0.00356708
0.00352182
0.00356438
0.00352504
0.00352504
0.00352182
0.00351473
0.00347025
0.00351203
0.00351203
0.00347341
0.00347341
0.00351473
0.00347025
0.00351203
0.00351203
0.00347341
0.00347341
0.00351203
0.00347341
0.00347341
0.00351473
0.00347025
0.00351203
0.00347341
0.00347341
0.00347025
0.00346335
0.00342002
0.00346069
0.00346069
0.00342307
0.00342308
0.00346335
0.00342002
0.00346069
0.00346069
0.00342307
0.00342308
0.00346069
0.00342307
0.00342307
0.00346335
0.00342002
0.00346069
0.00342307
0.00342307
0.00342002
0.00341334
0.00337124
0.00341072
0.00341072
0.0033742
0.0033742
0.00341334
0.00337124
0.00341072
0.00341072
0.0033742
0.0033742
0.00341072
0.0033742
0.0033742
0.00341334
0.00337124
0.00341072
0.0033742
0.0033742
0.00337124
0.00336477
0.0033238
0.0033622
0.0033622
0.00332666
0.00332666
0.00336477
0.0033238
0.0033622
0.0033622
0.00332667
0.00332666
0.0033622
0.00332667
0.00332667
0.00336477
0.0033238
0.0033622
0.00332667
0.00332667
0.0033238
0.00331751
0.00327749
0.00331496
0.00331496
0.00328028
0.00328028
0.00331751
0.00327749
0.00331497
0.00331496
0.00328028
0.00328028
0.00331497
0.00328028
0.00328028
0.00331751
0.00327749
0.00331497
0.00328028
0.00328028
0.00327749
0.00327135
0.0032321
0.00326883
0.00326883
0.00323484
0.00323484
0.00327134
0.0032321
0.00326883
0.00326883
0.00323484
0.00323484
0.00326883
0.00323484
0.00323484
0.00327135
0.0032321
0.00326884
0.00323484
0.00323484
0.0032321
0.00322609
0.00318752
0.00322361
0.00322361
0.00319021
0.00319021
0.00322608
0.00318752
0.00322361
0.00322361
0.00319021
0.00319021
0.00322361
0.00319021
0.00319021
0.00322608
0.00318752
0.00322361
0.00319021
0.00319021
0.00318752
0.00318163
0.00314385
0.00317919
0.00317919
0.00314651
0.00314651
0.00318162
0.00314385
0.00317919
0.00317919
0.00314651
0.00314651
0.00317919
0.00314651
0.00314651
0.00318163
0.00314385
0.00317919
0.00314651
0.00314651
0.00314385
0.00313812
0.00310185
0.00313577
0.00313577
0.00310433
0.00310433
0.00313813
0.00310186
0.00313577
0.00313577
0.00310433
0.00310433
0.00313577
0.00310433
0.00310433
0.00313813
0.00310185
0.00313577
0.00310433
0.00310433
0.00310186
0.00309643
0.0030622
0.00309416
0.00309416
0.00306449
0.00306449
0.00309643
0.0030622
0.00309416
0.00309416
0.00306449
0.00306449
0.00309416
0.00306449
0.00306449
0.00309643
0.0030622
0.00309416
0.00306449
0.00306449
0.0030622
0.00305702
0.00302386
0.00305481
0.00305481
0.00302608
0.00302608
0.00305702
0.00302386
0.00305481
0.00305481
0.00302608
0.00302608
0.00305481
0.00302608
0.00302608
0.00305703
0.00302386
0.00305481
0.00302608
0.00302608
0.00302386
0.00301878
0.00298596
0.00301657
0.00301657
0.00298815
0.00298815
0.00301878
0.00298596
0.00301657
0.00301657
0.00298814
0.00298815
0.00301657
0.00298815
0.00298815
0.00301878
0.00298596
0.00301657
0.00298815
0.00298815
0.00298596
0.0029809
0.00294819
0.00297869
0.00297869
0.00295038
0.00295038
0.0029809
0.00294819
0.00297869
0.00297869
0.00295038
0.00295038
0.00297869
0.00295038
0.00295038
0.0029809
0.00294819
0.00297869
0.00295038
0.00295038
0.00294819
0.00294314
0.00291047
0.00294094
0.00294094
0.00291265
0.00291265
0.00294314
0.00291047
0.00294094
0.00294094
0.00291265
0.00291265
0.00294094
0.00291265
0.00291265
0.00294314
0.00291047
0.00294094
0.00291265
0.00291265
0.00291047
0.00290542
0.00287275
0.00290322
0.00290322
0.00287493
0.00287493
0.00290542
0.00287275
0.00290322
0.00290322
0.00287493
0.00287493
0.00290322
0.00287493
0.00287493
0.00290542
0.00287275
0.00290322
0.00287493
0.00287493
0.00287275
0.0028677
0.00283503
0.0028655
0.0028655
0.00283721
0.00283721
0.0028677
0.00283503
0.0028655
0.0028655
0.00283721
0.00283721
0.0028655
0.00283721
0.00283721
0.0028677
0.00283503
0.0028655
0.00283721
0.00283721
0.00283503
0.00282998
0.00279731
0.00282778
0.00282778
0.00279949
0.0027995
0.00282998
0.00279731
0.00282778
0.00282778
0.00279949
0.00279949
0.00282778
0.00279949
0.00279949
0.00282998
0.00279731
0.00282778
0.00279949
0.00279949
0.00279731
0.00279226
0.0027596
0.00279007
0.00279007
0.00276178
0.00276178
0.00279226
0.0027596
0.00279006
0.00279007
0.00276178
0.00276178
0.00279007
0.00276178
0.00276178
0.00279226
0.0027596
0.00279007
0.00276178
0.00276178
0.0027596
0.00275455
0.00272188
0.00275235
0.00275235
0.00272406
0.00272406
0.00275455
0.00272188
0.00275235
0.00275235
0.00272406
0.00272406
0.00275235
0.00272406
0.00272406
0.00275455
0.00272188
0.00275235
0.00272406
0.00272406
0.00272188
0.00271683
0.00268416
0.00271463
0.00271463
0.00268635
0.00268635
0.00271683
0.00268416
0.00271463
0.00271463
0.00268635
0.00268635
0.00271463
0.00268635
0.00268635
0.00271683
0.00268416
0.00271463
0.00268635
0.00268635
0.00268416
0.00267911
0.00264645
0.00267692
0.00267692
0.00264863
0.00264863
0.00267911
0.00264645
0.00267692
0.00267692
0.00264863
0.00264863
0.00267692
0.00264863
0.00264863
0.00267911
0.00264645
0.00267692
0.00264863
0.00264863
0.00264645
0.0026414
0.00260873
0.0026392
0.0026392
0.00261091
0.00261091
0.0026414
0.00260873
0.0026392
0.0026392
0.00261091
0.00261091
0.0026392
0.00261091
0.00261091
0.0026414
0.00260873
0.0026392
0.00261091
0.00261091
0.00260873
0.00260368
0.00257101
0.00260148
0.00260148
0.00257319
0.00257319
0.00260368
0.00257101
0.00260148
0.00260148
0.00257319
0.00257319
0.00260148
0.00257319
0.00257319
0.00260368
0.00257101
0.00260148
0.00257319
0.00257319
0.00257101
0.00256596
0.00253329
0.00256376
0.00256376
0.00253547
0.00253547
0.00256596
0.00253329
0.00256376
0.00256376
0.00253547
0.00253547
0.00256376
0.00253547
0.00253547
0.00256596
0.00253329
0.00256376
0.00253547
0.00253547
0.00253329
0.00252824
0.00249556
0.00252604
0.00252604
0.00249775
0.00249775
0.00252824
0.00249556
0.00252604
0.00252604
0.00249775
0.00249775
0.00252604
0.00249775
0.00249775
0.00252824
0.00249556
0.00252604
0.00249775
0.00249775
0.00249556
0.00249051
0.00245784
0.00248832
0.00248832
0.00246002
0.00246002
0.00249051
0.00245784
0.00248832
0.00248832
0.00246002
0.00246002
0.00248832
0.00246002
0.00246002
0.00249051
0.00245784
0.00248832
0.00246002
0.00246002
0.00245784
0.00245279
0.00245059
0.00245059
0.00245279
0.00245059
0.00245059
0.00245059
0.00245279
0.00245059
0.00369254
0.00370211
0.00369701
0.00369702
0.00371924
0.00370607
0.00373433
0.0037002
0.00371924
0.00370608
0.0037002
0.00373433
0.00371065
0.00373808
0.00373809
0.00364756
0.0036732
0.00367571
0.0036374
0.00365175
0.00363791
0.00364754
0.00367319
0.0036757
0.00363738
0.00367109
0.00367109
0.00367109
0.00362674
0.00362674
0.00362674
0.00362674
0.00364568
0.00367266
0.00367127
0.00365443
0.00367513
0.00364232
0.00365524
0.00365184
0.00363792
0.00364568
0.00367127
0.00367267
0.00365443
0.00367512
0.00365524
0.00364232
0.00367628
0.00367627
0.00364858
0.00364299
0.00364298
0.00360118
0.00362121
0.00362193
0.00359968
0.00361995
0.00359917
0.00360117
0.0036212
0.00362193
0.00359967
0.00361473
0.00361473
0.00361473
0.00357753
0.00357753
0.00357753
0.00357753
0.00359976
0.00362075
0.00361515
0.00360321
0.00361941
0.00360002
0.00360304
0.00361995
0.00359916
0.00359976
0.00361515
0.00362074
0.00360321
0.00361941
0.00360304
0.00360002
0.00362202
0.00362202
0.00360009
0.00360058
0.00360059
0.00354882
0.00356759
0.00356864
0.00354781
0.00356722
0.00354751
0.00354882
0.00356759
0.00356864
0.00354781
0.00356439
0.00356439
0.00356439
0.00352502
0.00352502
0.00352502
0.00352502
0.00354792
0.00356788
0.00356436
0.00355123
0.00356746
0.00354818
0.0035512
0.00356722
0.00354751
0.00354792
0.00356436
0.00356788
0.00355123
0.00356746
0.0035512
0.00354818
0.00356819
0.00356819
0.00354801
0.00354832
0.00354832
0.00349624
0.0035149
0.00351576
0.00349549
0.00351469
0.0034953
0.00349624
0.0035149
0.00351576
0.00349549
0.00351202
0.00351202
0.00351202
0.00347341
0.00347341
0.00347341
0.00347341
0.00349574
0.00351526
0.00351201
0.00349908
0.00351505
0.00349587
0.00349907
0.00351469
0.0034953
0.00349574
0.00351201
0.00351525
0.00349908
0.00351505
0.00349907
0.00349587
0.00351532
0.00351532
0.00349589
0.00349584
0.00349584
0.00344504
0.00346342
0.00346403
0.00344451
0.00346326
0.00344435
0.00344504
0.00346342
0.00346403
0.00344451
0.00346069
0.00346069
0.00346069
0.00342306
0.00342306
0.00342306
0.00342306
0.00344477
0.00346374
0.00346067
0.00344806
0.00346361
0.00344486
0.00344804
0.00346326
0.00344435
0.00344477
0.00346067
0.00346374
0.00344806
0.00346361
0.00344804
0.00344486
0.00346373
0.00346373
0.00344495
0.00344478
0.00344478
0.0033954
0.00341336
0.0034138
0.00339501
0.00341324
0.00339487
0.0033954
0.00341336
0.0034138
0.00339501
0.00341071
0.00341071
0.00341071
0.00337418
0.00337418
0.00337418
0.00337418
0.00339528
0.00341365
0.00341069
0.00339846
0.00341355
0.00339533
0.00339843
0.00341323
0.00339488
0.00339528
0.00341069
0.00341365
0.00339846
0.00341355
0.00339843
0.00339533
0.00341362
0.00341362
0.00339545
0.00339525
0.00339525
0.00334722
0.00336478
0.00336509
0.00334695
0.00336466
0.00334683
0.00334722
0.00336478
0.00336509
0.00334695
0.00336217
0.00336217
0.00336217
0.00332663
0.00332663
0.00332663
0.00332663
0.00334719
0.00336503
0.00336216
0.00335029
0.00336495
0.00334725
0.00335024
0.00336466
0.00334684
0.0033472
0.00336216
0.00336503
0.00335028
0.00336495
0.00335024
0.00334725
0.00336501
0.00336501
0.00334737
0.00334717
0.00334717
0.00330032
0.00331751
0.00331774
0.00330013
0.00331741
0.00330002
0.00330032
0.00331752
0.00331774
0.00330013
0.00331493
0.00331493
0.00331493
0.00328023
0.00328023
0.00328023
0.00328023
0.00330036
0.00331775
0.00331492
0.00330334
0.00331767
0.00330041
0.0033033
0.00331741
0.00330002
0.00330036
0.00331492
0.00331775
0.00330334
0.00331767
0.0033033
0.00330041
0.00331773
0.00331773
0.00330052
0.00330032
0.00330032
0.00325448
0.00327136
0.00327152
0.00325432
0.00327126
0.00325422
0.00325448
0.00327136
0.00327152
0.00325432
0.00326879
0.00326879
0.00326879
0.00323479
0.00323479
0.00323479
0.00323479
0.00325455
0.00327157
0.00326879
0.00325745
0.0032715
0.00325459
0.00325741
0.00327126
0.00325422
0.00325455
0.00326879
0.00327157
0.00325745
0.0032715
0.00325741
0.00325459
0.00327155
0.00327155
0.00325469
0.0032545
0.0032545
0.00320949
0.00322609
0.00322623
0.00320935
0.003226
0.00320926
0.00320949
0.00322609
0.00322623
0.00320935
0.00322356
0.00322356
0.00322356
0.00319018
0.00319018
0.00319018
0.00319018
0.00320959
0.0032263
0.00322357
0.00321242
0.00322624
0.00320962
0.00321239
0.003226
0.00320926
0.00320959
0.00322357
0.0032263
0.00321242
0.00322624
0.00321239
0.00320962
0.00322628
0.00322628
0.00320971
0.00320952
0.00320952
0.00316532
0.00318159
0.00318173
0.00316518
0.00318151
0.0031651
0.00316532
0.0031816
0.00318173
0.00316518
0.00317917
0.00317917
0.00317917
0.00314653
0.00314653
0.00314653
0.00314653
0.00316544
0.0031818
0.00317917
0.00316823
0.00318177
0.00316545
0.00316821
0.00318151
0.0031651
0.00316544
0.00317917
0.0031818
0.00316823
0.00318177
0.00316821
0.00316545
0.00318176
0.00318176
0.00316556
0.00316534
0.00316534
0.00312213
0.00313806
0.00313816
0.0031221
0.00313798
0.00312202
0.00312213
0.00313806
0.00313816
0.0031221
0.00313581
0.00313581
0.00313581
0.00310439
0.00310439
0.00310439
0.00310439
0.00312238
0.00313823
0.00313577
0.00312516
0.00313825
0.00312232
0.00312517
0.00313798
0.00312202
0.00312238
0.00313577
0.00313823
0.00312515
0.00313825
0.00312517
0.00312232
0.00313819
0.00313819
0.00312257
0.00312219
0.00312219
0.00308138
0.00309627
0.00309625
0.00308138
0.00309623
0.00308136
0.00308138
0.00309627
0.00309625
0.00308138
0.00309423
0.00309423
0.00309423
0.00306458
0.00306458
0.00306458
0.00306458
0.00308159
0.00309639
0.00309421
0.00308414
0.00309644
0.00308153
0.00308419
0.00309624
0.00308136
0.00308159
0.00309421
0.00309639
0.00308414
0.00309644
0.00308419
0.00308152
0.00309635
0.00309635
0.00308177
0.00308143
0.00308143
0.00304274
0.00305705
0.00305709
0.00304269
0.00305704
0.00304268
0.00304274
0.00305705
0.00305709
0.00304269
0.00305489
0.00305489
0.00305489
0.00302615
0.00302615
0.00302615
0.00302615
0.00304283
0.00305706
0.00305484
0.00304519
0.00305712
0.00304276
0.00304522
0.00305704
0.00304268
0.00304283
0.00305484
0.00305706
0.00304519
0.00305712
0.00304522
0.00304276
0.00305707
0.00305707
0.00304295
0.0030427
0.0030427
0.00300471
0.00301886
0.00301889
0.00300469
0.00301886
0.00300469
0.00300471
0.00301885
0.00301889
0.00300469
0.00301664
0.00301664
0.00301664
0.00298821
0.00298821
0.00298821
0.00298821
0.00300477
0.00301884
0.00301659
0.00300708
0.00301889
0.00300473
0.0030071
0.00301886
0.00300468
0.00300477
0.00301659
0.00301884
0.00300708
0.00301889
0.0030071
0.00300473
0.00301887
0.00301887
0.00300489
0.00300468
0.00300468
0.00296692
0.00298103
0.00298104
0.00296692
0.00298103
0.00296691
0.00296692
0.00298103
0.00298104
0.00296692
0.00297875
0.00297875
0.00297875
0.00295043
0.00295043
0.00295043
0.00295043
0.00296697
0.002981
0.00297871
0.00296925
0.00298101
0.00296695
0.00296927
0.00298104
0.00296691
0.00296697
0.00297871
0.002981
0.00296925
0.00298102
0.00296927
0.00296695
0.00298104
0.00298104
0.00296706
0.00296691
0.00296691
0.0029292
0.0029433
0.00294331
0.00292919
0.0029433
0.00292919
0.0029292
0.0029433
0.00294331
0.00292919
0.002941
0.002941
0.002941
0.00291271
0.00291271
0.00291271
0.00291271
0.00292924
0.00294327
0.00294096
0.00293151
0.00294327
0.00292923
0.00293153
0.0029433
0.00292919
0.00292924
0.00294096
0.00294327
0.00293151
0.00294327
0.00293153
0.00292923
0.00294331
0.00294331
0.00292933
0.00292919
0.00292919
0.00289148
0.00290559
0.00290559
0.00289148
0.00290559
0.00289148
0.00289148
0.00290559
0.00290559
0.00289148
0.00290328
0.00290328
0.00290328
0.00287499
0.00287499
0.00287499
0.00287499
0.00289152
0.00290555
0.00290324
0.00289379
0.00290555
0.00289151
0.00289381
0.00290559
0.00289148
0.00289152
0.00290324
0.00290555
0.00289379
0.00290555
0.00289381
0.00289151
0.00290559
0.00290559
0.00289161
0.00289147
0.00289147
0.00285376
0.00286787
0.00286787
0.00285375
0.00286787
0.00285376
0.00285376
0.00286787
0.00286787
0.00285376
0.00286556
0.00286556
0.00286556
0.00283727
0.00283727
0.00283727
0.00283727
0.0028538
0.00286783
0.00286552
0.00285607
0.00286783
0.00285379
0.00285609
0.00286787
0.00285376
0.0028538
0.00286552
0.00286783
0.00285607
0.00286783
0.00285609
0.00285379
0.00286787
0.00286787
0.00285389
0.00285375
0.00285375
0.00281604
0.00283015
0.00283015
0.00281604
0.00283014
0.00281604
0.00281604
0.00283015
0.00283015
0.00281604
0.00282784
0.00282784
0.00282784
0.00279955
0.00279955
0.00279955
0.00279955
0.00281608
0.00283011
0.0028278
0.00281835
0.00283011
0.00281607
0.00281837
0.00283015
0.00281604
0.00281608
0.0028278
0.00283011
0.00281835
0.00283011
0.00281837
0.00281607
0.00283015
0.00283015
0.00281617
0.00281603
0.00281603
0.00277832
0.00279243
0.00279243
0.00277832
0.00279242
0.00277833
0.00277832
0.00279243
0.00279243
0.00277832
0.00279012
0.00279012
0.00279012
0.00276183
0.00276183
0.00276183
0.00276183
0.00277836
0.0027924
0.00279008
0.00278064
0.0027924
0.00277835
0.00278065
0.00279243
0.00277832
0.00277836
0.00279008
0.00279239
0.00278064
0.00279239
0.00278065
0.00277835
0.00279243
0.00279243
0.00277845
0.00277832
0.00277832
0.00274061
0.00275471
0.00275472
0.0027406
0.00275471
0.0027406
0.00274061
0.00275471
0.00275472
0.0027406
0.0027524
0.0027524
0.0027524
0.00272412
0.00272412
0.00272412
0.00272412
0.00274065
0.00275468
0.00275236
0.00274292
0.00275468
0.00274064
0.00274293
0.00275471
0.0027406
0.00274065
0.00275236
0.00275468
0.00274292
0.00275468
0.00274293
0.00274064
0.00275472
0.00275472
0.00274074
0.0027406
0.0027406
0.00270289
0.002717
0.002717
0.00270289
0.002717
0.00270289
0.00270289
0.002717
0.002717
0.00270289
0.00271469
0.00271469
0.00271469
0.0026864
0.0026864
0.0026864
0.0026864
0.00270293
0.00271696
0.00271465
0.0027052
0.00271696
0.00270292
0.00270522
0.002717
0.00270289
0.00270293
0.00271465
0.00271696
0.0027052
0.00271696
0.00270522
0.00270292
0.002717
0.002717
0.00270302
0.00270289
0.00270289
0.00266517
0.00267928
0.00267928
0.00266517
0.00267928
0.00266517
0.00266517
0.00267928
0.00267928
0.00266517
0.00267697
0.00267697
0.00267697
0.00264868
0.00264868
0.00264868
0.00264868
0.00266521
0.00267925
0.00267693
0.00266749
0.00267925
0.0026652
0.0026675
0.00267928
0.00266517
0.00266521
0.00267693
0.00267925
0.00266749
0.00267925
0.0026675
0.0026652
0.00267929
0.00267929
0.0026653
0.00266517
0.00266517
0.00262746
0.00264156
0.00264157
0.00262746
0.00264156
0.00262745
0.00262746
0.00264156
0.00264157
0.00262746
0.00263925
0.00263925
0.00263925
0.00261097
0.00261097
0.00261097
0.00261097
0.0026275
0.00264153
0.00263921
0.00262977
0.00264153
0.00262749
0.00262978
0.00264156
0.00262745
0.0026275
0.00263921
0.00264153
0.00262977
0.00264153
0.00262978
0.00262749
0.00264157
0.00264157
0.00262759
0.00262745
0.00262745
0.00258974
0.00260385
0.00260385
0.00258974
0.00260385
0.00258974
0.00258974
0.00260385
0.00260385
0.00258974
0.00260154
0.00260154
0.00260154
0.00257325
0.00257325
0.00257325
0.00257325
0.00258978
0.00260381
0.00260149
0.00259205
0.00260381
0.00258977
0.00259206
0.00260385
0.00258974
0.00258978
0.00260149
0.00260381
0.00259205
0.00260381
0.00259206
0.00258977
0.00260385
0.00260385
0.00258987
0.00258973
0.00258973
0.00255202
0.00256613
0.00256613
0.00255202
0.00256613
0.00255201
0.00255202
0.00256613
0.00256613
0.00255202
0.00256382
0.00256382
0.00256382
0.00253552
0.00253552
0.00253552
0.00253552
0.00255206
0.00256609
0.00256377
0.00255433
0.00256609
0.00255205
0.00255434
0.00256613
0.00255201
0.00255206
0.00256377
0.00256609
0.00255433
0.00256609
0.00255434
0.00255205
0.00256613
0.00256613
0.00255215
0.00255201
0.00255201
0.00251429
0.0025284
0.00252841
0.00251429
0.0025284
0.00251429
0.00251429
0.0025284
0.00252841
0.00251429
0.00252609
0.00252609
0.00252609
0.0024978
0.0024978
0.0024978
0.0024978
0.00251433
0.00252837
0.00252605
0.00251661
0.00252837
0.00251432
0.00251662
0.0025284
0.00251429
0.00251433
0.00252605
0.00252837
0.00251661
0.00252837
0.00251662
0.00251432
0.00252841
0.00252841
0.00251443
0.00251429
0.00251429
0.00247657
0.00249068
0.00249068
0.00247657
0.00249068
0.00247657
0.00247657
0.00249068
0.00249068
0.00247657
0.00248837
0.00248837
0.00248837
0.00246008
0.00246008
0.00246008
0.00246008
0.00247661
0.00249065
0.00248833
0.00247888
0.00249065
0.0024766
0.0024789
0.00249068
0.00247657
0.00247661
0.00248833
0.00249065
0.00247888
0.00249065
0.0024789
0.0024766
0.00249068
0.00249069
0.0024767
0.00247656
0.00247656
0.00243885
0.00245296
0.00245296
0.00243885
0.00245296
0.00243884
0.00243885
0.00245296
0.00245296
0.00243885
0.00245064
0.00245065
0.00245065
0.00243888
0.00245292
0.0024506
0.00244116
0.00245292
0.00243888
0.00244117
0.00245296
0.00243884
0.00243888
0.0024506
0.00245292
0.00244116
0.00245292
0.00244117
0.00243887
0.00245296
0.00245296
0.00243898
0.00243884
0.00243884
0.00371064
0.00373807
0.00373809
0.0037033
0.00373717
0.00370326
0.00373719
0.00370744
0.00369346
0.00369346
0.00373285
0.00373286
0.00371922
0.00370607
0.00373432
0.0037002
0.00371922
0.00370607
0.00373432
0.0037002
0.00372341
0.00369741
0.00373435
0.00368903
0.00372341
0.00369739
0.00373436
0.00368904
0.00371489
0.00370355
0.00368811
0.00368662
0.0037296
0.00369861
0.00368732
0.00371489
0.00370355
0.00368811
0.00368662
0.0037296
0.00369861
0.00368732
0.00371064
0.00373807
0.00373808
0.00370326
0.00373717
0.00370744
0.00369345
0.00369347
0.00373285
0.00373285
0.00370328
0.00373717
0.00371924
0.00370608
0.00373433
0.0037002
0.00371924
0.00370608
0.0037002
0.00373433
0.00372343
0.00369741
0.00373437
0.00368905
0.0037149
0.00370355
0.00368811
0.00368662
0.00372961
0.00369862
0.00368733
0.00372342
0.00369741
0.00373437
0.00368904
0.0037149
0.00370355
0.00368662
0.00368811
0.00369862
0.00372961
0.00368733
0.00369254
0.00370211
0.00369701
0.00369702
0.00369254
0.00370212
0.00369702
0.00369702
0.00369254
0.00370212
0.00369702
0.00369702
0.0036913
0.00370018
0.0036834
0.0036834
0.00369558
0.00369559
0.00368161
0.0036913
0.00370018
0.0036834
0.0036834
0.00369558
0.00369558
0.00368161
0.0036913
0.00370019
0.0036834
0.0036834
0.00369559
0.00369559
0.00368161
0.0036913
0.00370019
0.0036834
0.0036834
0.00369558
0.00369559
0.00368161
0.00371924
0.00370608
0.0037002
0.00373432
0.0037149
0.00370355
0.00368811
0.00368662
0.00372961
0.00369862
0.00368732
0.00372343
0.00369741
0.00373436
0.00368905
0.0037149
0.00370355
0.00368662
0.00368811
0.00369862
0.00372961
0.00368732
0.00372342
0.0036974
0.00373436
0.00368904
0.00371065
0.00373809
0.00373808
0.00370324
0.00373718
0.00370744
0.00369346
0.00369346
0.00373286
0.00373286
0.00370323
0.00373718
0.00371924
0.00370608
0.0037002
0.00373433
0.0037149
0.00370355
0.00368662
0.00368812
0.00369862
0.00372961
0.00368733
0.00371491
0.00370355
0.00368662
0.00368812
0.00369862
0.00372961
0.00368733
0.00372343
0.0036974
0.00373437
0.00368904
0.00372343
0.00369742
0.00373437
0.00368905
0.00370744
0.00369346
0.00369347
0.00373286
0.00373286
0.00370324
0.00373717
0.00370327
0.00373718
0.00365176
0.00363791
0.00365184
0.0036379
0.00367625
0.00367628
0.00364859
0.00364298
0.00364298
0.00362697
0.00364026
0.00362697
0.00364026
0.00364156
0.00362892
0.00362891
0.00364048
0.00364048
0.00364756
0.00367318
0.00367571
0.0036374
0.0036457
0.00367266
0.00367127
0.00365442
0.00367512
0.00364233
0.00365524
0.00364569
0.00367265
0.00367127
0.00365442
0.00367513
0.00364233
0.00365524
0.00364255
0.00362824
0.00363746
0.00362839
0.00364254
0.00362824
0.00363746
0.00362839
0.00363989
0.00363977
0.00362751
0.00362723
0.00363933
0.00364031
0.00362564
0.00363988
0.00363977
0.00362751
0.00362723
0.00363934
0.00364032
0.00362564
0.00367623
0.00367628
0.00364861
0.00364298
0.00364299
0.00365188
0.00363791
0.00362697
0.00364026
0.00364156
0.00362891
0.00362891
0.00364048
0.00364048
0.00362696
0.00364026
0.00364568
0.00367266
0.00367127
0.00365443
0.00367513
0.00364232
0.00365524
0.00364755
0.0036732
0.0036757
0.0036374
0.00364569
0.00367127
0.00367267
0.00365442
0.00367512
0.00365524
0.00364232
0.00364253
0.00362824
0.00363746
0.00362839
0.00363987
0.00363977
0.00362751
0.00362722
0.00363932
0.00364031
0.00362564
0.00364254
0.00362824
0.00363747
0.00362839
0.00363988
0.00363977
0.00362722
0.00362751
0.00364031
0.00363933
0.00362564
0.00364754
0.0036732
0.0036757
0.00363739
0.00364569
0.00367127
0.00367267
0.00365442
0.00367512
0.00365524
0.00364232
0.00364755
0.0036732
0.00367569
0.00363739
0.00363987
0.00363977
0.00362751
0.00362722
0.00363932
0.00364031
0.00362564
0.00364253
0.00362824
0.00363745
0.00362839
0.00363988
0.00363977
0.00362722
0.00362751
0.00364031
0.00363932
0.00362564
0.00364254
0.00362824
0.00363745
0.00362839
0.00367627
0.00367628
0.00364858
0.00364298
0.00364298
0.00365184
0.0036379
0.00362697
0.00364027
0.00364156
0.00362891
0.00362891
0.00364048
0.00364047
0.00362697
0.00364023
0.00364568
0.00367127
0.00367267
0.00365443
0.00367513
0.00365524
0.00364232
0.00364755
0.0036732
0.00367569
0.00363739
0.00364754
0.00367321
0.0036757
0.00363739
0.00363988
0.00363977
0.00362722
0.00362751
0.00364031
0.00363932
0.00362564
0.00363987
0.00363977
0.00362722
0.00362751
0.00364031
0.00363932
0.00362564
0.00364254
0.00362824
0.00363746
0.00362839
0.00364253
0.00362824
0.00363745
0.00362839
0.00365186
0.0036379
0.00365186
0.00363791
0.00364156
0.00362891
0.00362891
0.00364048
0.00364048
0.00362698
0.00364024
0.00362696
0.00364025
0.00361995
0.00359917
0.00361994
0.00359917
0.00362202
0.00362202
0.00360009
0.00360059
0.00360059
0.0035737
0.00359265
0.0035737
0.00359265
0.00359304
0.00357474
0.00357474
0.00359397
0.00359396
0.00360118
0.00362121
0.00362193
0.00359967
0.00359976
0.00362075
0.00361515
0.00360321
0.00361941
0.00360002
0.00360304
0.00359976
0.00362075
0.00361515
0.00360321
0.00361941
0.00360002
0.00360304
0.0035945
0.00357411
0.00359312
0.0035752
0.0035945
0.00357411
0.00359312
0.0035752
0.00359314
0.00359049
0.00357445
0.0035775
0.00359349
0.00359046
0.00357408
0.00359314
0.00359049
0.00357446
0.0035775
0.00359349
0.00359046
0.00357408
0.00362202
0.00362203
0.00360009
0.00360059
0.00360059
0.00361995
0.00359917
0.0035737
0.00359265
0.00359304
0.00357474
0.00357474
0.00359397
0.00359397
0.0035737
0.00359265
0.00359976
0.00362074
0.00361515
0.00360321
0.00361941
0.00360002
0.00360304
0.00360117
0.0036212
0.00362193
0.00359967
0.00359976
0.00361515
0.00362074
0.00360321
0.00361941
0.00360304
0.00360002
0.0035945
0.00357411
0.00359312
0.0035752
0.00359314
0.00359049
0.00357445
0.0035775
0.00359349
0.00359046
0.00357408
0.0035945
0.00357411
0.00359312
0.0035752
0.00359314
0.00359049
0.0035775
0.00357445
0.00359046
0.00359348
0.00357408
0.00360117
0.00362121
0.00362193
0.00359968
0.00359976
0.00361515
0.00362075
0.00360321
0.00361941
0.00360304
0.00360002
0.00360117
0.00362121
0.00362193
0.00359967
0.00359314
0.00359049
0.00357445
0.0035775
0.00359349
0.00359046
0.00357408
0.0035945
0.00357411
0.00359312
0.0035752
0.00359314
0.00359049
0.0035775
0.00357445
0.00359046
0.00359349
0.00357408
0.0035945
0.00357411
0.00359312
0.0035752
0.00362202
0.00362202
0.00360009
0.00360058
0.00360059
0.00361995
0.00359917
0.0035737
0.00359265
0.00359303
0.00357474
0.00357474
0.00359396
0.00359396
0.0035737
0.00359265
0.00359976
0.00361515
0.00362074
0.00360321
0.00361941
0.00360304
0.00360002
0.00360118
0.0036212
0.00362193
0.00359967
0.00360118
0.0036212
0.00362193
0.00359967
0.00359314
0.00359049
0.0035775
0.00357445
0.00359046
0.00359349
0.00357408
0.00359314
0.00359049
0.0035775
0.00357445
0.00359046
0.00359349
0.00357408
0.0035945
0.00357411
0.00359312
0.0035752
0.0035945
0.00357411
0.00359312
0.0035752
0.00361995
0.00359917
0.00361994
0.00359917
0.00359304
0.00357474
0.00357474
0.00359396
0.00359397
0.0035737
0.00359265
0.0035737
0.00359265
0.00356722
0.00354751
0.00356722
0.00354751
0.00356819
0.00356819
0.00354802
0.00354832
0.00354832
0.00352123
0.00354088
0.00352123
0.00354088
0.00354085
0.00352189
0.00352189
0.00354165
0.00354165
0.00354882
0.00356759
0.00356864
0.00354781
0.00354792
0.00356788
0.00356436
0.00355123
0.00356746
0.00354818
0.0035512
0.00354792
0.00356788
0.00356436
0.00355124
0.00356746
0.00354818
0.0035512
0.00354213
0.00352146
0.00354115
0.00352235
0.00354213
0.00352146
0.00354115
0.00352235
0.00354121
0.00353811
0.00352186
0.00352501
0.00354149
0.00353807
0.00352169
0.00354121
0.00353811
0.00352186
0.00352501
0.00354149
0.00353807
0.00352169
0.00356819
0.00356819
0.00354801
0.00354832
0.00354832
0.00356722
0.00354751
0.00352123
0.00354088
0.00354085
0.00352189
0.00352189
0.00354165
0.00354165
0.00352123
0.00354088
0.00354792
0.00356788
0.00356436
0.00355123
0.00356746
0.00354818
0.0035512
0.00354882
0.00356759
0.00356864
0.00354781
0.00354792
0.00356436
0.00356788
0.00355124
0.00356746
0.0035512
0.00354818
0.00354213
0.00352146
0.00354115
0.00352235
0.00354121
0.00353811
0.00352186
0.00352501
0.00354149
0.00353807
0.00352169
0.00354213
0.00352146
0.00354115
0.00352235
0.00354121
0.00353811
0.00352501
0.00352186
0.00353807
0.00354149
0.00352169
0.00354882
0.00356759
0.00356864
0.00354781
0.00354792
0.00356436
0.00356788
0.00355123
0.00356746
0.0035512
0.00354818
0.00354882
0.00356759
0.00356864
0.00354781
0.00354121
0.00353811
0.00352186
0.00352501
0.00354149
0.00353807
0.00352169
0.00354213