/*--------------------------------*- C++ -*----------------------------------*\
| =========                 |                                                 |
| \\      /  F ield         | OpenFOAM: The Open Source CFD Toolbox           |
|  \\    /   O peration     | Version:  v1912                                 |
|   \\  /    A nd           | Website:  www.openfoam.com                      |
|    \\/     M anipulation  |                                                 |
\*---------------------------------------------------------------------------*/
FoamFile
{
    version     2.0;
    format      ascii;
    class       volScalarField;
    location    "40";
    object      epsilon;
}
// * * * * * * * * * * * * * * * * * * * * * * * * * * * * * * * * * * * * * //

dimensions      [0 2 -3 0 0 0 0];


internalField   nonuniform List<scalar> 
57062
(
2.32572e-07
2.6287e-07
2.62887e-07
2.98399e-07
2.32584e-07
2.62882e-07
2.62899e-07
2.98425e-07
2.32568e-07
2.62898e-07
2.62908e-07
2.98451e-07
2.32572e-07
2.62914e-07
2.62912e-07
2.98483e-07
2.32581e-07
2.62916e-07
2.62925e-07
2.98518e-07
2.32549e-07
2.62882e-07
2.62901e-07
2.98531e-07
2.32519e-07
2.62824e-07
2.62859e-07
2.98457e-07
2.32404e-07
2.62673e-07
2.62714e-07
2.98267e-07
2.32319e-07
2.62597e-07
2.62621e-07
2.98187e-07
2.32252e-07
2.62578e-07
2.62592e-07
2.98149e-07
2.32255e-07
2.6258e-07
2.62592e-07
2.98148e-07
2.32258e-07
2.6258e-07
2.62591e-07
2.98157e-07
2.32259e-07
2.62579e-07
2.62592e-07
2.98156e-07
2.32259e-07
2.62579e-07
2.62592e-07
2.98157e-07
2.32259e-07
2.62579e-07
2.62592e-07
2.98157e-07
2.32259e-07
2.62579e-07
2.62592e-07
2.98156e-07
2.32259e-07
2.62579e-07
2.62592e-07
2.98157e-07
2.32259e-07
2.62579e-07
2.62592e-07
2.98157e-07
2.32259e-07
2.6258e-07
2.62592e-07
2.98157e-07
2.32259e-07
2.6258e-07
2.62592e-07
2.98158e-07
2.32259e-07
2.62579e-07
2.62592e-07
2.98157e-07
2.32259e-07
2.62579e-07
2.62591e-07
2.98157e-07
2.32259e-07
2.62579e-07
2.62591e-07
2.98156e-07
2.32259e-07
2.62578e-07
2.6259e-07
2.98155e-07
2.32259e-07
2.62575e-07
2.62587e-07
2.98152e-07
2.32259e-07
2.62571e-07
2.62583e-07
2.98148e-07
2.32259e-07
2.62563e-07
2.62575e-07
2.98138e-07
2.32258e-07
2.62549e-07
2.62561e-07
2.98128e-07
2.32252e-07
2.62557e-07
2.62568e-07
2.98082e-07
2.31318e-07
2.58559e-07
2.58562e-07
2.91904e-07
2.9815e-07
2.62931e-07
2.62916e-07
2.98116e-07
2.62895e-07
2.62921e-07
2.6287e-07
2.62908e-07
2.98142e-07
2.62884e-07
2.62888e-07
2.98118e-07
2.98456e-07
2.98166e-07
2.62931e-07
2.62937e-07
2.62912e-07
2.62928e-07
2.98417e-07
2.98142e-07
2.62895e-07
2.62921e-07
2.62881e-07
2.62907e-07
2.62929e-07
2.62882e-07
2.6292e-07
2.98448e-07
2.98162e-07
2.62909e-07
2.62898e-07
2.629e-07
2.98143e-07
2.98464e-07
2.98176e-07
2.62922e-07
2.6294e-07
2.62913e-07
2.62933e-07
2.98444e-07
2.98171e-07
2.62895e-07
2.62921e-07
2.62888e-07
2.62916e-07
2.62932e-07
2.62898e-07
2.62927e-07
2.9846e-07
2.98177e-07
2.62912e-07
2.62907e-07
2.62907e-07
2.98168e-07
2.98475e-07
2.98194e-07
2.62924e-07
2.62947e-07
2.62919e-07
2.62943e-07
2.98473e-07
2.98199e-07
2.62904e-07
2.62935e-07
2.62895e-07
2.62928e-07
2.62943e-07
2.62914e-07
2.62939e-07
2.98478e-07
2.98202e-07
2.62926e-07
2.62912e-07
2.62921e-07
2.982e-07
2.98493e-07
2.9821e-07
2.62938e-07
2.62966e-07
2.62935e-07
2.62963e-07
2.98501e-07
2.98226e-07
2.62908e-07
2.62947e-07
2.62906e-07
2.62943e-07
2.62961e-07
2.62926e-07
2.62957e-07
2.98502e-07
2.98224e-07
2.62944e-07
2.62927e-07
2.62939e-07
2.98235e-07
2.98509e-07
2.9822e-07
2.62954e-07
2.62971e-07
2.62927e-07
2.62935e-07
2.98525e-07
2.98224e-07
2.62927e-07
2.62963e-07
2.62912e-07
2.62952e-07
2.62965e-07
2.6289e-07
2.62935e-07
2.98524e-07
2.98237e-07
2.62955e-07
2.6291e-07
2.62926e-07
2.98254e-07
2.98516e-07
2.98187e-07
2.62923e-07
2.6293e-07
2.62895e-07
2.62894e-07
2.98518e-07
2.98148e-07
2.62907e-07
2.62951e-07
2.62876e-07
2.62921e-07
2.62931e-07
2.62849e-07
2.62898e-07
2.98533e-07
2.98202e-07
2.62921e-07
2.62874e-07
2.62884e-07
2.98192e-07
2.98475e-07
2.98031e-07
2.62886e-07
2.62879e-07
2.62771e-07
2.62748e-07
2.98433e-07
2.97987e-07
2.62865e-07
2.62909e-07
2.62749e-07
2.62782e-07
2.62879e-07
2.62707e-07
2.62738e-07
2.98489e-07
2.98038e-07
2.62865e-07
2.62761e-07
2.62728e-07
2.98002e-07
2.98314e-07
2.97935e-07
2.62734e-07
2.62719e-07
2.62656e-07
2.62645e-07
2.98272e-07
2.9791e-07
2.62712e-07
2.62742e-07
2.62634e-07
2.62659e-07
2.62709e-07
2.62616e-07
2.62634e-07
2.9832e-07
2.97935e-07
2.62697e-07
2.62644e-07
2.62619e-07
2.97913e-07
2.98227e-07
2.97903e-07
2.62644e-07
2.62646e-07
2.62608e-07
2.62614e-07
2.98204e-07
2.97879e-07
2.62634e-07
2.62659e-07
2.62593e-07
2.62622e-07
2.62634e-07
2.62581e-07
2.62604e-07
2.98227e-07
2.97904e-07
2.62617e-07
2.62598e-07
2.62586e-07
2.97875e-07
2.98195e-07
2.97883e-07
2.62617e-07
2.62624e-07
2.62605e-07
2.62615e-07
2.98172e-07
2.97868e-07
2.62601e-07
2.62631e-07
2.62589e-07
2.6262e-07
2.62614e-07
2.62581e-07
2.62608e-07
2.98197e-07
2.97883e-07
2.62596e-07
2.62592e-07
2.62589e-07
2.97867e-07
2.98181e-07
2.97891e-07
2.62617e-07
2.62629e-07
2.62609e-07
2.62621e-07
2.98167e-07
2.97874e-07
2.62601e-07
2.62632e-07
2.62593e-07
2.62624e-07
2.62626e-07
2.6258e-07
2.62615e-07
2.9818e-07
2.97891e-07
2.62604e-07
2.62592e-07
2.62595e-07
2.97878e-07
2.98188e-07
2.97892e-07
2.62621e-07
2.62632e-07
2.62612e-07
2.62623e-07
2.98171e-07
2.97874e-07
2.62605e-07
2.62636e-07
2.62596e-07
2.62627e-07
2.62626e-07
2.6258e-07
2.62615e-07
2.98187e-07
2.97891e-07
2.62606e-07
2.62592e-07
2.62595e-07
2.97877e-07
2.98189e-07
2.97892e-07
2.62624e-07
2.62634e-07
2.62614e-07
2.62623e-07
2.98172e-07
2.97874e-07
2.62607e-07
2.62639e-07
2.62597e-07
2.62629e-07
2.62626e-07
2.6258e-07
2.62615e-07
2.98188e-07
2.97891e-07
2.62607e-07
2.62593e-07
2.62596e-07
2.97878e-07
2.98189e-07
2.97892e-07
2.62625e-07
2.62635e-07
2.62614e-07
2.62624e-07
2.98172e-07
2.97874e-07
2.62608e-07
2.6264e-07
2.62598e-07
2.6263e-07
2.62626e-07
2.6258e-07
2.62615e-07
2.98188e-07
2.97891e-07
2.62607e-07
2.62593e-07
2.62597e-07
2.97878e-07
2.98189e-07
2.97892e-07
2.62625e-07
2.62635e-07
2.62614e-07
2.62624e-07
2.98172e-07
2.97875e-07
2.62608e-07
2.62641e-07
2.62598e-07
2.6263e-07
2.62626e-07
2.6258e-07
2.62616e-07
2.98188e-07
2.97891e-07
2.62608e-07
2.62593e-07
2.62597e-07
2.97878e-07
2.98189e-07
2.97892e-07
2.62625e-07
2.62635e-07
2.62614e-07
2.62624e-07
2.98172e-07
2.97875e-07
2.62609e-07
2.62641e-07
2.62598e-07
2.6263e-07
2.62626e-07
2.6258e-07
2.62616e-07
2.98188e-07
2.97891e-07
2.62608e-07
2.62592e-07
2.62597e-07
2.97878e-07
2.98189e-07
2.97892e-07
2.62625e-07
2.62635e-07
2.62614e-07
2.62624e-07
2.98172e-07
2.97874e-07
2.62609e-07
2.62641e-07
2.62598e-07
2.6263e-07
2.62627e-07
2.6258e-07
2.62616e-07
2.98188e-07
2.97891e-07
2.62608e-07
2.62592e-07
2.62597e-07
2.97878e-07
2.98189e-07
2.97892e-07
2.62625e-07
2.62635e-07
2.62614e-07
2.62625e-07
2.98172e-07
2.97874e-07
2.62609e-07
2.62641e-07
2.62598e-07
2.6263e-07
2.62627e-07
2.6258e-07
2.62616e-07
2.98188e-07
2.97891e-07
2.62608e-07
2.62592e-07
2.62597e-07
2.97878e-07
2.98189e-07
2.97892e-07
2.62625e-07
2.62636e-07
2.62614e-07
2.62625e-07
2.98172e-07
2.97875e-07
2.62609e-07
2.62641e-07
2.62598e-07
2.62631e-07
2.62627e-07
2.6258e-07
2.62616e-07
2.98188e-07
2.97891e-07
2.62608e-07
2.62593e-07
2.62597e-07
2.97879e-07
2.98189e-07
2.97893e-07
2.62625e-07
2.62636e-07
2.62614e-07
2.62625e-07
2.98172e-07
2.97875e-07
2.62609e-07
2.62641e-07
2.62598e-07
2.6263e-07
2.62627e-07
2.6258e-07
2.62616e-07
2.98188e-07
2.97891e-07
2.62608e-07
2.62592e-07
2.62597e-07
2.97879e-07
2.9819e-07
2.97892e-07
2.62625e-07
2.62635e-07
2.62614e-07
2.62624e-07
2.98172e-07
2.97874e-07
2.62608e-07
2.62641e-07
2.62597e-07
2.6263e-07
2.62627e-07
2.6258e-07
2.62616e-07
2.98188e-07
2.97892e-07
2.62608e-07
2.62592e-07
2.62597e-07
2.97878e-07
2.98189e-07
2.97892e-07
2.62625e-07
2.62635e-07
2.62613e-07
2.62624e-07
2.98172e-07
2.97873e-07
2.62608e-07
2.62641e-07
2.62596e-07
2.6263e-07
2.62626e-07
2.62579e-07
2.62615e-07
2.98187e-07
2.97891e-07
2.62608e-07
2.62592e-07
2.62596e-07
2.97877e-07
2.98188e-07
2.9789e-07
2.62624e-07
2.62634e-07
2.62612e-07
2.62622e-07
2.98171e-07
2.97872e-07
2.62607e-07
2.62641e-07
2.62595e-07
2.62629e-07
2.62626e-07
2.62579e-07
2.62614e-07
2.98187e-07
2.97889e-07
2.62607e-07
2.62591e-07
2.62595e-07
2.97877e-07
2.98187e-07
2.97887e-07
2.62623e-07
2.62633e-07
2.62609e-07
2.6262e-07
2.98169e-07
2.97869e-07
2.62606e-07
2.62639e-07
2.62592e-07
2.62625e-07
2.62625e-07
2.62577e-07
2.62611e-07
2.98185e-07
2.97886e-07
2.62606e-07
2.62589e-07
2.62593e-07
2.97874e-07
2.98183e-07
2.97881e-07
2.6262e-07
2.6263e-07
2.62604e-07
2.62614e-07
2.98166e-07
2.97863e-07
2.62603e-07
2.62636e-07
2.62587e-07
2.6262e-07
2.62622e-07
2.62573e-07
2.62606e-07
2.98181e-07
2.9788e-07
2.62603e-07
2.62585e-07
2.62588e-07
2.9787e-07
2.98177e-07
2.97872e-07
2.62614e-07
2.62625e-07
2.62595e-07
2.62605e-07
2.9816e-07
2.97854e-07
2.62598e-07
2.62631e-07
2.62578e-07
2.62611e-07
2.62617e-07
2.62566e-07
2.62597e-07
2.98175e-07
2.9787e-07
2.62598e-07
2.62578e-07
2.62579e-07
2.97861e-07
2.98167e-07
2.97865e-07
2.62605e-07
2.62615e-07
2.62581e-07
2.6259e-07
2.98149e-07
2.97847e-07
2.62588e-07
2.62621e-07
2.62564e-07
2.62596e-07
2.62607e-07
2.62554e-07
2.62582e-07
2.98165e-07
2.97864e-07
2.62589e-07
2.62566e-07
2.62562e-07
2.97853e-07
2.98159e-07
2.97821e-07
2.6259e-07
2.62599e-07
2.62529e-07
2.62536e-07
2.98143e-07
2.97803e-07
2.62573e-07
2.62605e-07
2.62511e-07
2.62542e-07
2.62591e-07
2.625e-07
2.6253e-07
2.98158e-07
2.97819e-07
2.62571e-07
2.6251e-07
2.62507e-07
2.97806e-07
2.98115e-07
2.95217e-07
2.62593e-07
2.626e-07
2.59996e-07
2.60002e-07
2.98099e-07
2.95205e-07
2.62574e-07
2.62607e-07
2.59982e-07
2.60002e-07
2.62594e-07
2.59975e-07
2.59995e-07
2.98112e-07
2.95211e-07
2.62571e-07
2.59979e-07
2.59978e-07
2.95187e-07
2.91938e-07
2.5858e-07
2.58585e-07
2.91927e-07
2.58569e-07
2.58585e-07
2.31326e-07
2.31326e-07
2.31324e-07
2.58579e-07
2.91932e-07
2.58566e-07
2.32573e-07
2.32585e-07
2.32593e-07
2.32585e-07
1.86155e-06
8.81304e-06
1.86191e-06
8.81232e-06
2.05827e-05
2.05812e-05
1.86155e-06
8.81467e-06
1.86198e-06
8.81387e-06
2.32606e-07
2.32592e-07
2.32607e-07
2.32587e-07
2.32597e-07
2.32576e-07
2.32595e-07
5.30217e-07
1.49955e-06
2.43102e-07
2.62887e-07
5.30363e-07
1.49874e-06
2.43118e-07
2.05849e-05
2.05827e-05
5.30248e-07
2.43109e-07
1.49933e-06
2.62903e-07
5.30395e-07
2.43131e-07
1.49862e-06
3.40599e-06
3.40707e-06
2.98128e-07
3.40553e-06
3.40661e-06
1.86208e-06
8.81214e-06
1.86257e-06
8.81163e-06
2.05784e-05
2.05785e-05
1.86201e-06
8.81362e-06
1.86246e-06
8.81306e-06
2.32597e-07
2.32587e-07
2.32606e-07
2.3257e-07
2.32581e-07
2.32579e-07
2.32594e-07
5.3034e-07
1.49994e-06
2.43108e-07
2.62904e-07
5.30489e-07
1.49907e-06
2.43125e-07
2.05792e-05
2.0579e-05
5.30366e-07
2.43117e-07
1.49984e-06
2.62913e-07
5.30521e-07
2.43129e-07
1.49903e-06
3.40668e-06
3.40775e-06
2.98152e-07
3.4062e-06
3.4073e-06
1.86237e-06
8.81188e-06
1.86293e-06
8.81161e-06
2.05778e-05
2.05785e-05
1.8623e-06
8.81339e-06
1.86281e-06
8.81308e-06
2.32593e-07
2.3259e-07
2.32605e-07
2.32572e-07
2.32591e-07
2.32583e-07
2.326e-07
5.30435e-07
1.5002e-06
2.43115e-07
2.62918e-07
5.30591e-07
1.49931e-06
2.43134e-07
2.05774e-05
2.05784e-05
5.30477e-07
2.43115e-07
1.50015e-06
2.62919e-07
5.30633e-07
2.43125e-07
1.4993e-06
3.40731e-06
3.4084e-06
2.98181e-07
3.4068e-06
3.40789e-06
1.86252e-06
8.81207e-06
1.86312e-06
8.81183e-06
2.05782e-05
2.05793e-05
1.86244e-06
8.81355e-06
1.863e-06
8.81324e-06
2.32614e-07
2.32595e-07
2.32615e-07
2.32586e-07
2.32609e-07
2.32585e-07
2.32597e-07
5.30509e-07
1.5004e-06
2.43127e-07
2.62935e-07
5.30673e-07
1.49949e-06
2.4313e-07
2.05776e-05
2.05788e-05
5.30559e-07
2.43119e-07
1.50037e-06
2.62933e-07
5.30727e-07
2.43139e-07
1.4995e-06
3.4078e-06
3.40888e-06
2.98215e-07
3.40723e-06
3.40831e-06
1.86257e-06
8.81231e-06
1.8632e-06
8.81209e-06
2.05791e-05
2.05804e-05
1.86249e-06
8.8137e-06
1.86307e-06
8.81342e-06
2.32607e-07
2.32582e-07
2.32593e-07
2.32557e-07
2.32564e-07
2.32554e-07
2.32565e-07
5.30543e-07
1.50054e-06
2.43109e-07
2.62913e-07
5.3073e-07
1.4996e-06
2.43106e-07
2.05785e-05
2.05795e-05
5.30607e-07
2.4312e-07
1.50051e-06
2.62925e-07
5.30787e-07
2.43116e-07
1.49961e-06
3.40813e-06
3.4092e-06
2.98247e-07
3.40749e-06
3.40858e-06
1.8626e-06
8.81265e-06
1.86326e-06
8.81256e-06
2.05803e-05
2.05812e-05
1.86251e-06
8.81397e-06
1.86311e-06
8.81384e-06
2.32558e-07
2.3255e-07
2.32563e-07
2.32528e-07
2.32529e-07
2.32526e-07
2.32544e-07
5.30497e-07
1.50062e-06
2.43082e-07
2.62878e-07
5.30709e-07
1.49967e-06
2.43081e-07
2.05796e-05
2.05809e-05
5.30567e-07
2.43091e-07
1.50059e-06
2.62898e-07
5.30797e-07
2.43089e-07
1.49967e-06
3.40831e-06
3.4094e-06
2.98236e-07
3.40765e-06
3.40876e-06
1.86271e-06
8.81336e-06
1.86339e-06
8.81322e-06
2.05803e-05
2.05806e-05
1.86259e-06
8.81464e-06
1.86323e-06
8.81447e-06
2.32524e-07
2.32525e-07
2.32537e-07
2.32446e-07
2.32412e-07
2.32439e-07
2.32416e-07
5.30333e-07
1.50068e-06
2.43046e-07
2.62804e-07
5.3061e-07
1.49964e-06
2.43029e-07
2.05801e-05
2.05808e-05
5.30429e-07
2.4306e-07
1.50065e-06
2.62845e-07
5.30688e-07
2.4305e-07
1.49968e-06
3.40846e-06
3.40957e-06
2.98094e-07
3.40771e-06
3.40882e-06
1.86226e-06
8.81354e-06
1.8631e-06
8.81313e-06
2.05793e-05
2.05797e-05
1.86216e-06
8.81484e-06
1.86293e-06
8.81442e-06
2.32386e-07
2.32405e-07
2.32389e-07
2.32344e-07
2.3232e-07
2.32336e-07
2.32318e-07
5.30125e-07
1.50045e-06
2.42904e-07
2.62662e-07
5.30382e-07
1.49937e-06
2.42891e-07
2.05793e-05
2.05799e-05
5.30197e-07
2.42932e-07
1.50049e-06
2.62695e-07
5.30468e-07
2.42915e-07
1.49944e-06
3.40832e-06
3.40942e-06
2.97941e-07
3.4075e-06
3.4086e-06
1.86197e-06
8.81321e-06
1.86272e-06
8.81272e-06
2.05787e-05
2.05792e-05
1.86191e-06
8.81456e-06
1.8626e-06
8.81405e-06
2.32299e-07
2.32313e-07
2.32297e-07
2.32257e-07
2.32261e-07
2.32263e-07
2.32261e-07
5.30018e-07
1.50019e-06
2.42818e-07
2.62601e-07
5.30237e-07
1.49913e-06
2.4282e-07
2.05782e-05
2.05789e-05
5.30068e-07
2.42837e-07
1.50024e-06
2.62622e-07
5.3029e-07
2.42831e-07
1.49921e-06
3.40806e-06
3.40914e-06
2.9789e-07
3.40721e-06
3.4083e-06
1.8618e-06
8.81282e-06
1.8625e-06
8.81242e-06
2.05783e-05
2.05789e-05
1.86175e-06
8.81418e-06
1.86239e-06
8.81374e-06
2.32275e-07
2.32275e-07
2.32276e-07
2.32256e-07
2.32268e-07
2.32269e-07
2.32268e-07
5.29985e-07
1.50002e-06
2.42796e-07
2.6259e-07
5.3018e-07
1.49901e-06
2.4281e-07
2.05777e-05
2.05786e-05
5.30026e-07
2.42799e-07
1.50004e-06
2.62602e-07
5.30224e-07
2.4281e-07
1.49905e-06
3.40778e-06
3.40885e-06
2.9786e-07
3.40697e-06
3.40806e-06
1.86179e-06
8.81269e-06
1.86244e-06
8.81236e-06
2.05782e-05
2.05789e-05
1.86173e-06
8.81402e-06
1.86233e-06
8.81364e-06
2.3228e-07
2.32282e-07
2.3228e-07
2.32258e-07
2.32272e-07
2.32275e-07
2.32273e-07
5.29986e-07
1.49997e-06
2.42799e-07
2.62591e-07
5.30172e-07
1.49899e-06
2.42812e-07
2.05777e-05
2.05787e-05
5.30026e-07
2.428e-07
1.49996e-06
2.62604e-07
5.30213e-07
2.42812e-07
1.499e-06
3.40764e-06
3.40872e-06
2.97872e-07
3.4069e-06
3.40799e-06
1.86181e-06
8.81268e-06
1.86246e-06
8.81236e-06
2.05782e-05
2.05789e-05
1.86174e-06
8.81398e-06
1.86234e-06
8.81362e-06
2.32285e-07
2.32287e-07
2.32285e-07
2.32259e-07
2.32276e-07
2.32279e-07
2.32277e-07
5.29987e-07
1.49997e-06
2.42801e-07
2.62591e-07
5.30176e-07
1.49899e-06
2.42812e-07
2.05777e-05
2.05787e-05
5.30032e-07
2.42802e-07
1.49994e-06
2.62603e-07
5.30219e-07
2.42815e-07
1.49899e-06
3.40762e-06
3.4087e-06
2.97875e-07
3.40689e-06
3.40798e-06
1.86181e-06
8.81269e-06
1.86246e-06
8.81236e-06
2.05782e-05
2.05789e-05
1.86174e-06
8.81397e-06
1.86234e-06
8.81361e-06
2.32287e-07
2.32291e-07
2.32288e-07
2.3226e-07
2.32276e-07
2.3228e-07
2.32277e-07
5.29987e-07
1.49997e-06
2.42799e-07
2.62591e-07
5.30176e-07
1.49899e-06
2.42811e-07
2.05777e-05
2.05787e-05
5.30029e-07
2.42804e-07
1.49994e-06
2.62603e-07
5.30221e-07
2.42816e-07
1.49899e-06
3.40762e-06
3.4087e-06
2.97875e-07
3.4069e-06
3.40799e-06
1.86181e-06
8.81269e-06
1.86246e-06
8.81236e-06
2.05782e-05
2.05789e-05
1.86174e-06
8.81397e-06
1.86235e-06
8.81361e-06
2.32287e-07
2.32291e-07
2.32288e-07
2.3226e-07
2.32276e-07
2.3228e-07
2.32277e-07
5.29987e-07
1.49997e-06
2.428e-07
2.62591e-07
5.30176e-07
1.49899e-06
2.42811e-07
2.05777e-05
2.05787e-05
5.30025e-07
2.42803e-07
1.49994e-06
2.62603e-07
5.30216e-07
2.42815e-07
1.49899e-06
3.40763e-06
3.40871e-06
2.97875e-07
3.4069e-06
3.40799e-06
1.86181e-06
8.81269e-06
1.86247e-06
8.81237e-06
2.05782e-05
2.05789e-05
1.86175e-06
8.81397e-06
1.86235e-06
8.81362e-06
2.32287e-07
2.32291e-07
2.32288e-07
2.3226e-07
2.32276e-07
2.3228e-07
2.32277e-07
5.29987e-07
1.49997e-06
2.42799e-07
2.62591e-07
5.30176e-07
1.49899e-06
2.42811e-07
2.05777e-05
2.05787e-05
5.30024e-07
2.42802e-07
1.49994e-06
2.62603e-07
5.30214e-07
2.42814e-07
1.49899e-06
3.40763e-06
3.40871e-06
2.97875e-07
3.4069e-06
3.40799e-06
1.86181e-06
8.81269e-06
1.86247e-06
8.81236e-06
2.05782e-05
2.05789e-05
1.86174e-06
8.81397e-06
1.86235e-06
8.81361e-06
2.32287e-07
2.32291e-07
2.32288e-07
2.3226e-07
2.32276e-07
2.3228e-07
2.32277e-07
5.29987e-07
1.49997e-06
2.42799e-07
2.62591e-07
5.30176e-07
1.49899e-06
2.42811e-07
2.05777e-05
2.05787e-05
5.30021e-07
2.42802e-07
1.49994e-06
2.62603e-07
5.30212e-07
2.42814e-07
1.499e-06
3.40763e-06
3.40871e-06
2.97875e-07
3.4069e-06
3.40799e-06
1.86181e-06
8.81268e-06
1.86246e-06
8.81236e-06
2.05782e-05
2.05789e-05
1.86174e-06
8.81396e-06
1.86234e-06
8.81361e-06
2.32287e-07
2.32291e-07
2.32288e-07
2.3226e-07
2.32276e-07
2.3228e-07
2.32277e-07
5.29987e-07
1.49997e-06
2.42799e-07
2.62591e-07
5.30176e-07
1.49899e-06
2.42813e-07
2.05777e-05
2.05787e-05
5.30018e-07
2.42802e-07
1.49994e-06
2.62603e-07
5.30209e-07
2.42813e-07
1.49899e-06
3.40763e-06
3.40871e-06
2.97875e-07
3.4069e-06
3.40799e-06
1.86181e-06
8.81268e-06
1.86246e-06
8.81236e-06
2.05782e-05
2.05789e-05
1.86174e-06
8.81396e-06
1.86235e-06
8.81372e-06
2.32287e-07
2.32291e-07
2.32288e-07
2.3226e-07
2.32276e-07
2.3228e-07
2.32277e-07
5.29987e-07
1.49997e-06
2.42801e-07
2.62591e-07
5.30175e-07
1.49899e-06
2.42813e-07
2.05777e-05
2.05788e-05
5.30015e-07
2.42801e-07
1.49994e-06
2.62603e-07
5.30206e-07
2.42813e-07
1.49899e-06
3.40762e-06
3.40871e-06
2.97875e-07
3.4069e-06
3.40799e-06
1.86181e-06
8.81268e-06
1.86246e-06
8.81236e-06
2.05782e-05
2.05789e-05
1.86174e-06
8.81414e-06
1.86234e-06
8.81383e-06
2.32287e-07
2.32291e-07
2.32288e-07
2.3226e-07
2.32276e-07
2.3228e-07
2.32277e-07
5.29987e-07
1.49997e-06
2.428e-07
2.62591e-07
5.30175e-07
1.49899e-06
2.42812e-07
2.05778e-05
2.05787e-05
5.30011e-07
2.42803e-07
1.49994e-06
2.62603e-07
5.30203e-07
2.42816e-07
1.49899e-06
3.40762e-06
3.40871e-06
2.97875e-07
3.40689e-06
3.40799e-06
1.86181e-06
8.81269e-06
1.86246e-06
8.81237e-06
2.05782e-05
2.05789e-05
1.86174e-06
8.81422e-06
1.86234e-06
8.8139e-06
2.32287e-07
2.32291e-07
2.32288e-07
2.3226e-07
2.32276e-07
2.3228e-07
2.32277e-07
5.29986e-07
1.49997e-06
2.42799e-07
2.62591e-07
5.30175e-07
1.49899e-06
2.42811e-07
2.05778e-05
2.05788e-05
5.30009e-07
2.42803e-07
1.49994e-06
2.62603e-07
5.30199e-07
2.42814e-07
1.49899e-06
3.40762e-06
3.40871e-06
2.97876e-07
3.4069e-06
3.40799e-06
1.86182e-06
8.81269e-06
1.86247e-06
8.81245e-06
2.05783e-05
2.05792e-05
1.86175e-06
8.81426e-06
1.86235e-06
8.81401e-06
2.32287e-07
2.32291e-07
2.32288e-07
2.3226e-07
2.32276e-07
2.3228e-07
2.32277e-07
5.29987e-07
1.49995e-06
2.42799e-07
2.62591e-07
5.30175e-07
1.49896e-06
2.42811e-07
2.05777e-05
2.0579e-05
5.30007e-07
2.42802e-07
1.49992e-06
2.62603e-07
5.30197e-07
2.42814e-07
1.49897e-06
3.4076e-06
3.40868e-06
2.97875e-07
3.40686e-06
3.40795e-06
1.8618e-06
8.81277e-06
1.86247e-06
8.81275e-06
2.05784e-05
2.05807e-05
1.86173e-06
8.81437e-06
1.86235e-06
8.81434e-06
2.32287e-07
2.32291e-07
2.32288e-07
2.3226e-07
2.32276e-07
2.3228e-07
2.32277e-07
5.29982e-07
1.49987e-06
2.42799e-07
2.6259e-07
5.30174e-07
1.49883e-06
2.42811e-07
2.05783e-05
2.05806e-05
5.30003e-07
2.42801e-07
1.49984e-06
2.62602e-07
5.30196e-07
2.42813e-07
1.49884e-06
3.40738e-06
3.40846e-06
2.97875e-07
3.40661e-06
3.40771e-06
1.86181e-06
8.81291e-06
1.86255e-06
8.81302e-06
2.05791e-05
2.0583e-05
1.86173e-06
8.81454e-06
1.86243e-06
8.81462e-06
2.32287e-07
2.32291e-07
2.32288e-07
2.3226e-07
2.32276e-07
2.3228e-07
2.32277e-07
5.29976e-07
1.4998e-06
2.42799e-07
2.6259e-07
5.30183e-07
1.49866e-06
2.42811e-07
2.05791e-05
2.05831e-05
5.29998e-07
2.42801e-07
1.49977e-06
2.62602e-07
5.30205e-07
2.42813e-07
1.49867e-06
3.40709e-06
3.40817e-06
2.97874e-07
3.40624e-06
3.40733e-06
1.86206e-06
8.81299e-06
1.86288e-06
8.81373e-06
2.0579e-05
2.05843e-05
1.86199e-06
8.81461e-06
1.86276e-06
8.81535e-06
2.32287e-07
2.32291e-07
2.32288e-07
2.3226e-07
2.32275e-07
2.32279e-07
2.32276e-07
5.29997e-07
1.49964e-06
2.42799e-07
2.62588e-07
5.30206e-07
1.49841e-06
2.42811e-07
2.05798e-05
2.05855e-05
5.30018e-07
2.42801e-07
1.49961e-06
2.626e-07
5.30227e-07
2.42813e-07
1.49842e-06
3.40717e-06
3.40825e-06
2.97873e-07
3.40659e-06
3.40768e-06
1.86224e-06
8.81371e-06
1.86308e-06
8.81548e-06
2.05758e-05
2.05839e-05
1.86217e-06
8.81535e-06
1.86296e-06
8.81712e-06
2.32286e-07
2.3229e-07
2.32288e-07
2.3226e-07
2.32275e-07
2.32279e-07
2.32276e-07
5.30009e-07
1.49911e-06
2.42799e-07
2.62585e-07
5.30228e-07
1.49773e-06
2.4281e-07
2.05773e-05
2.05855e-05
5.30023e-07
2.42801e-07
1.49909e-06
2.62597e-07
5.30244e-07
2.42813e-07
1.49773e-06
3.40814e-06
3.40922e-06
2.9787e-07
3.40797e-06
3.40905e-06
1.86264e-06
8.81474e-06
1.86347e-06
8.81706e-06
2.05688e-05
2.05822e-05
1.86257e-06
8.81639e-06
1.86335e-06
8.8188e-06
2.32286e-07
2.3229e-07
2.32287e-07
2.32259e-07
2.32274e-07
2.32278e-07
2.32275e-07
5.30027e-07
1.49833e-06
2.428e-07
2.6258e-07
5.30271e-07
1.49718e-06
2.42811e-07
2.05706e-05
2.0584e-05
5.30035e-07
2.42802e-07
1.49839e-06
2.62592e-07
5.30281e-07
2.42813e-07
1.49735e-06
3.40981e-06
3.41088e-06
2.97863e-07
3.40937e-06
3.41044e-06
1.8633e-06
8.81266e-06
1.86396e-06
8.81571e-06
2.05593e-05
2.05795e-05
1.8632e-06
8.8145e-06
1.86382e-06
8.81761e-06
2.32285e-07
2.32289e-07
2.32286e-07
2.3226e-07
2.32272e-07
2.32276e-07
2.32273e-07
5.30044e-07
1.49913e-06
2.428e-07
2.6257e-07
5.30324e-07
1.49842e-06
2.42813e-07
2.05613e-05
2.05815e-05
5.3005e-07
2.42802e-07
1.49935e-06
2.62582e-07
5.3033e-07
2.42814e-07
1.49871e-06
3.41128e-06
3.41232e-06
2.97855e-07
3.4101e-06
3.41112e-06
1.8643e-06
8.80597e-06
1.8646e-06
8.81088e-06
2.0548e-05
2.05752e-05
1.86421e-06
8.80775e-06
1.86445e-06
8.81262e-06
2.32283e-07
2.32287e-07
2.32284e-07
2.32252e-07
2.32255e-07
2.32259e-07
2.32256e-07
5.30038e-07
1.50195e-06
2.42797e-07
2.6255e-07
5.30406e-07
1.50145e-06
2.42805e-07
2.05503e-05
2.05773e-05
5.30048e-07
2.428e-07
1.50222e-06
2.62562e-07
5.30414e-07
2.42808e-07
1.50173e-06
3.41219e-06
3.41314e-06
2.97843e-07
3.41046e-06
3.41142e-06
1.86282e-06
8.79153e-06
1.86462e-06
8.79493e-06
2.05342e-05
2.05569e-05
1.86291e-06
8.79327e-06
1.86455e-06
8.79656e-06
2.32274e-07
2.32277e-07
2.32274e-07
2.31988e-07
2.31996e-07
2.31998e-07
2.31995e-07
5.28899e-07
1.5069e-06
2.42745e-07
2.62237e-07
5.30285e-07
1.50222e-06
2.42818e-07
2.05362e-05
2.05586e-05
5.28905e-07
2.42748e-07
1.5071e-06
2.62246e-07
5.30294e-07
2.4282e-07
1.50233e-06
3.4121e-06
3.41306e-06
2.97389e-07
3.40614e-06
3.40695e-06
1.35467e-06
7.72706e-06
1.83007e-06
3.92225e-06
1.7041e-05
7.53351e-06
1.35476e-06
7.72862e-06
1.83027e-06
3.92324e-06
2.23177e-07
2.25897e-07
2.25896e-07
2.33555e-07
2.23292e-07
2.26495e-07
2.26495e-07
4.98029e-07
1.42352e-06
2.41065e-07
2.55533e-07
5.17973e-07
1.44699e-06
2.38483e-07
1.70419e-05
7.53319e-06
4.98039e-07
2.41066e-07
1.42353e-06
2.55534e-07
5.17974e-07
2.38483e-07
1.44692e-06
3.35748e-06
3.35846e-06
2.8431e-07
2.91814e-06
2.91841e-06
2.05854e-05
2.05863e-05
3.40497e-06
3.40589e-06
8.81286e-06
1.86113e-06
8.8139e-06
8.81472e-06
1.86117e-06
1.49821e-06
2.43122e-07
5.30137e-07
2.62917e-07
1.4987e-06
2.43126e-07
1.49933e-06
5.30144e-07
2.05842e-05
2.0587e-05
2.98405e-07
3.40626e-06
3.40505e-06
3.40646e-06
3.40531e-06
2.05813e-05
2.05837e-05
8.81449e-06
1.86133e-06
1.4985e-06
2.43112e-07
5.30177e-07
8.81411e-06
1.8613e-06
2.43116e-07
1.49859e-06
5.30161e-07
5.30323e-07
2.62874e-07
1.4985e-06
2.43101e-07
1.49917e-06
2.43106e-07
5.30161e-07
1.86186e-06
8.81334e-06
8.81418e-06
1.86149e-06
5.30322e-07
2.62909e-07
2.43118e-07
1.49853e-06
2.43118e-07
1.49914e-06
5.30161e-07
1.86186e-06
8.81389e-06
8.81471e-06
1.86149e-06
2.05863e-05
3.40591e-06
3.40508e-06
2.05863e-05
2.4311e-07
1.4983e-06
5.30188e-07
2.62889e-07
2.43122e-07
1.4987e-06
1.49933e-06
5.30159e-07
8.81428e-06
1.86123e-06
8.81452e-06
8.81533e-06
1.86129e-06
2.98405e-07
3.40519e-06
3.40627e-06
3.4054e-06
3.40646e-06
2.05844e-05
2.05868e-05
2.05849e-05
2.05873e-05
2.05844e-05
2.05817e-05
2.05854e-05
2.05828e-05
3.40555e-06
3.40649e-06
2.98164e-07
3.40546e-06
3.40643e-06
2.0579e-05
2.05809e-05
2.05801e-05
2.05819e-05
2.98461e-07
3.4058e-06
3.4068e-06
3.40587e-06
3.40685e-06
1.86163e-06
8.81417e-06
1.86186e-06
8.81343e-06
5.30202e-07
1.49913e-06
2.43122e-07
2.62928e-07
5.30362e-07
1.49854e-06
2.4312e-07
5.30211e-07
1.49961e-06
2.43126e-07
2.62937e-07
5.30369e-07
1.49894e-06
2.43123e-07
1.86218e-06
8.81189e-06
8.8126e-06
1.86186e-06
1.86225e-06
8.8131e-06
8.81373e-06
1.86193e-06
5.30427e-07
2.62914e-07
1.49879e-06
2.43106e-07
1.49944e-06
2.43108e-07
5.30268e-07
5.30436e-07
2.62929e-07
1.49912e-06
2.43109e-07
1.49983e-06
2.4311e-07
5.30276e-07
3.4067e-06
3.40559e-06
2.98129e-07
3.40662e-06
3.40548e-06
2.05805e-05
2.05784e-05
2.05791e-05
2.05808e-05
2.9843e-07
3.40694e-06
3.40583e-06
3.40705e-06
3.40599e-06
2.05765e-05
2.05782e-05
5.30241e-07
1.49948e-06
2.43111e-07
2.62893e-07
5.30398e-07
1.49888e-06
2.4311e-07
1.86157e-06
8.81437e-06
1.86187e-06
8.8135e-06
5.30231e-07
2.43116e-07
1.49956e-06
2.62918e-07
5.30386e-07
2.43113e-07
1.49893e-06
1.8621e-06
8.81336e-06
8.81415e-06
1.86181e-06
5.30461e-07
2.62881e-07
1.49914e-06
2.43098e-07
1.49982e-06
2.43099e-07
5.30303e-07
1.86213e-06
8.81305e-06
8.8138e-06
1.86183e-06
5.30453e-07
2.62907e-07
2.431e-07
1.49917e-06
2.431e-07
1.49987e-06
5.30293e-07
1.8618e-06
8.81363e-06
1.86211e-06
8.81286e-06
5.30222e-07
2.43139e-07
1.49943e-06
2.62929e-07
5.30381e-07
2.43138e-07
1.49877e-06
1.86179e-06
8.81417e-06
1.86211e-06
8.81343e-06
5.3044e-07
2.62882e-07
1.49893e-06
2.43108e-07
1.49966e-06
2.43115e-07
5.30286e-07
1.8624e-06
8.81253e-06
8.81319e-06
1.86202e-06
5.30443e-07
2.62921e-07
2.43127e-07
1.49896e-06
2.43129e-07
1.49965e-06
5.30285e-07
1.86239e-06
8.8131e-06
8.81373e-06
1.86202e-06
3.40661e-06
3.40567e-06
2.98157e-07
3.40644e-06
3.40557e-06
2.05853e-05
2.05826e-05
2.058e-05
2.05821e-05
2.98455e-07
3.40674e-06
3.4059e-06
3.40695e-06
3.40598e-06
2.05799e-05
2.05817e-05
5.30222e-07
2.43122e-07
1.49961e-06
2.62909e-07
5.30379e-07
2.43119e-07
1.49895e-06
1.86168e-06
8.81454e-06
1.86193e-06
8.81372e-06
1.86156e-06
8.8148e-06
1.86186e-06
8.81407e-06
5.30476e-07
2.62903e-07
2.43117e-07
1.49885e-06
2.43128e-07
1.49951e-06
5.30316e-07
5.30443e-07
2.62901e-07
2.43108e-07
1.49913e-06
2.43108e-07
1.49984e-06
5.30284e-07
1.8623e-06
8.81332e-06
8.81401e-06
1.86196e-06
1.86211e-06
8.81375e-06
8.81437e-06
1.86181e-06
2.05832e-05
2.05811e-05
2.05837e-05
2.05816e-05
2.98431e-07
3.40589e-06
3.40697e-06
3.40596e-06
3.40702e-06
2.0579e-05
2.05806e-05
2.05795e-05
2.05811e-05
2.05789e-05
2.05776e-05
2.058e-05
2.05786e-05
3.40621e-06
3.40722e-06
2.98171e-07
3.40613e-06
3.40711e-06
2.05773e-05
2.05775e-05
2.05783e-05
2.05786e-05
2.98469e-07
3.40646e-06
3.40738e-06
3.40653e-06
3.40752e-06
1.86215e-06
8.81344e-06
1.86253e-06
8.81288e-06
5.30328e-07
1.49966e-06
2.43117e-07
2.62922e-07
5.30492e-07
1.49898e-06
2.43117e-07
5.30333e-07
1.5e-06
2.4312e-07
2.6294e-07
5.30499e-07
1.49927e-06
2.4312e-07
1.86266e-06
8.81154e-06
8.81198e-06
1.86225e-06
1.86272e-06
8.81289e-06
8.81325e-06
1.8623e-06
5.3055e-07
2.62915e-07
1.49913e-06
2.43108e-07
1.49984e-06
2.4311e-07
5.30379e-07
5.30555e-07
2.62933e-07
1.4994e-06
2.43114e-07
1.50014e-06
2.43115e-07
5.30386e-07
3.40736e-06
3.40633e-06
2.98158e-07
3.40722e-06
3.40615e-06
2.05766e-05
2.05757e-05
2.05783e-05
2.05785e-05
2.98459e-07
3.40752e-06
3.40644e-06
3.40764e-06
3.40664e-06
2.05754e-05
2.05758e-05
5.30358e-07
1.50006e-06
2.4311e-07
2.62894e-07
5.30521e-07
1.49934e-06
2.4311e-07
1.86204e-06
8.81339e-06
1.86238e-06
8.81274e-06
5.30348e-07
2.43111e-07
1.50009e-06
2.62921e-07
5.30513e-07
2.43111e-07
1.49936e-06
1.86254e-06
8.81302e-06
8.81345e-06
1.86218e-06
5.30576e-07
2.62888e-07
1.4995e-06
2.43101e-07
1.50025e-06
2.43101e-07
5.3041e-07
1.86257e-06
8.81264e-06
8.81312e-06
1.8622e-06
5.30568e-07
2.62916e-07
2.43104e-07
1.49951e-06
2.43104e-07
1.50027e-06
5.30399e-07
1.86219e-06
8.81289e-06
1.8626e-06
8.81231e-06
5.30334e-07
2.43137e-07
1.49983e-06
2.62932e-07
5.30502e-07
2.43137e-07
1.49911e-06
1.86218e-06
8.81343e-06
1.8626e-06
8.81288e-06
5.3056e-07
2.629e-07
1.4992e-06
2.43115e-07
1.49997e-06
2.43122e-07
5.30393e-07
1.86275e-06
8.81234e-06
8.81271e-06
1.8623e-06
5.30552e-07
2.62926e-07
2.43125e-07
1.49924e-06
2.43128e-07
1.49998e-06
5.30383e-07
1.86275e-06
8.81291e-06
8.81327e-06
1.8623e-06
3.40723e-06
3.40632e-06
2.98168e-07
3.40703e-06
3.40623e-06
2.05797e-05
2.05785e-05
2.05778e-05
2.0579e-05
2.98466e-07
3.40732e-06
3.40656e-06
3.40753e-06
3.40664e-06
2.05783e-05
2.05785e-05
5.30339e-07
2.43123e-07
1.50001e-06
2.62912e-07
5.30502e-07
2.43122e-07
1.49929e-06
1.86217e-06
8.81364e-06
1.86257e-06
8.81302e-06
1.86202e-06
8.81409e-06
1.86236e-06
8.81356e-06
5.30592e-07
2.62913e-07
2.4312e-07
1.49918e-06
2.43128e-07
1.4999e-06
5.30428e-07
5.30558e-07
2.62907e-07
2.43117e-07
1.49942e-06
2.43117e-07
1.50016e-06
5.30396e-07
1.86276e-06
8.81289e-06
8.81337e-06
1.86233e-06
1.86254e-06
8.81351e-06
8.81394e-06
1.86217e-06
2.0579e-05
2.05785e-05
2.05794e-05
2.0579e-05
2.98456e-07
3.40653e-06
3.40763e-06
3.40663e-06
3.40772e-06
2.05784e-05
2.05785e-05
2.05789e-05
2.0579e-05
2.05773e-05
2.05773e-05
2.05783e-05
2.05783e-05
3.40686e-06
3.40777e-06
2.98185e-07
3.40674e-06
3.40761e-06
2.05775e-05
2.05773e-05
2.05784e-05
2.05782e-05
2.98484e-07
3.40697e-06
3.40782e-06
3.40713e-06
3.40799e-06
1.86243e-06
8.81333e-06
1.86287e-06
8.81297e-06
5.30416e-07
1.49999e-06
2.4312e-07
2.62924e-07
5.30597e-07
1.49926e-06
2.43119e-07
5.30425e-07
1.50026e-06
2.43131e-07
2.62946e-07
5.30605e-07
1.49951e-06