/*--------------------------------*- C++ -*----------------------------------*\
| =========                 |                                                 |
| \\      /  F ield         | OpenFOAM: The Open Source CFD Toolbox           |
|  \\    /   O peration     | Version:  v1912                                 |
|   \\  /    A nd           | Website:  www.openfoam.com                      |
|    \\/     M anipulation  |                                                 |
\*---------------------------------------------------------------------------*/
FoamFile
{
    version     2.0;
    format      ascii;
    class       volScalarField;
    location    "40";
    object      k;
}
// * * * * * * * * * * * * * * * * * * * * * * * * * * * * * * * * * * * * * //

dimensions      [0 2 -2 0 0 0 0];


internalField   nonuniform List<scalar> 
57062
(
2.31484e-05
2.23535e-05
2.23538e-05
2.16644e-05
2.31487e-05
2.23539e-05
2.23545e-05
2.16651e-05
2.31487e-05
2.23541e-05
2.23535e-05
2.16659e-05
2.31479e-05
2.23542e-05
2.23527e-05
2.16669e-05
2.31469e-05
2.23533e-05
2.2352e-05
2.1668e-05
2.3145e-05
2.23507e-05
2.23505e-05
2.16659e-05
2.31433e-05
2.2346e-05
2.23478e-05
2.16571e-05
2.31262e-05
2.2329e-05
2.23308e-05
2.16427e-05
2.31224e-05
2.23293e-05
2.23287e-05
2.16406e-05
2.3124e-05
2.2331e-05
2.23303e-05
2.16424e-05
2.31256e-05
2.23323e-05
2.23319e-05
2.16439e-05
2.31271e-05
2.23326e-05
2.23324e-05
2.16447e-05
2.3128e-05
2.23326e-05
2.23325e-05
2.16445e-05
2.31282e-05
2.23326e-05
2.23325e-05
2.16445e-05
2.31281e-05
2.23326e-05
2.23324e-05
2.16445e-05
2.31281e-05
2.23326e-05
2.23325e-05
2.16444e-05
2.31281e-05
2.23326e-05
2.23324e-05
2.16445e-05
2.31281e-05
2.23326e-05
2.23325e-05
2.16444e-05
2.31281e-05
2.23326e-05
2.23325e-05
2.16444e-05
2.31281e-05
2.23326e-05
2.23325e-05
2.16445e-05
2.31281e-05
2.23326e-05
2.23324e-05
2.16445e-05
2.31281e-05
2.23327e-05
2.23324e-05
2.16445e-05
2.31281e-05
2.23327e-05
2.23325e-05
2.16444e-05
2.31281e-05
2.23327e-05
2.23325e-05
2.16445e-05
2.31281e-05
2.23329e-05
2.23327e-05
2.16445e-05
2.31281e-05
2.2333e-05
2.23328e-05
2.16446e-05
2.31282e-05
2.23332e-05
2.2333e-05
2.16444e-05
2.31283e-05
2.23335e-05
2.23333e-05
2.16445e-05
2.3129e-05
2.23342e-05
2.2334e-05
2.16451e-05
2.31612e-05
2.23715e-05
2.23714e-05
2.17257e-05
2.1669e-05
2.23537e-05
2.23537e-05
2.16695e-05
2.23535e-05
2.2353e-05
2.23535e-05
2.23534e-05
2.16688e-05
2.23539e-05
2.2354e-05
2.16688e-05
2.1666e-05
2.16688e-05
2.23537e-05
2.23552e-05
2.23528e-05
2.23545e-05
2.16666e-05
2.16706e-05
2.23535e-05
2.23529e-05
2.23527e-05
2.23522e-05
2.2355e-05
2.23539e-05
2.23543e-05
2.16658e-05
2.1669e-05
2.23555e-05
2.23547e-05
2.23547e-05
2.16695e-05
2.16658e-05
2.16694e-05
2.23536e-05
2.23553e-05
2.23529e-05
2.23546e-05
2.16677e-05
2.16717e-05
2.23536e-05
2.2353e-05
2.23532e-05
2.23523e-05
2.2355e-05
2.23542e-05
2.23543e-05
2.16659e-05
2.16695e-05
2.23555e-05
2.23537e-05
2.23548e-05
2.16703e-05
2.16664e-05
2.167e-05
2.23537e-05
2.23554e-05
2.2353e-05
2.23547e-05
2.16687e-05
2.16721e-05
2.23542e-05
2.23531e-05
2.23528e-05
2.23526e-05
2.23551e-05
2.23542e-05
2.23545e-05
2.16666e-05
2.16702e-05
2.23556e-05
2.23528e-05
2.2355e-05
2.16713e-05
2.16669e-05
2.16698e-05
2.23539e-05
2.23556e-05
2.23536e-05
2.23552e-05
2.1669e-05
2.1672e-05
2.23533e-05
2.23526e-05
2.23523e-05
2.23513e-05
2.23554e-05
2.23537e-05
2.23551e-05
2.16671e-05
2.167e-05
2.23558e-05
2.23522e-05
2.23555e-05
2.16724e-05
2.16667e-05
2.16685e-05
2.23536e-05
2.23551e-05
2.23516e-05
2.23519e-05
2.16687e-05
2.16688e-05
2.23522e-05
2.23522e-05
2.23514e-05
2.23509e-05
2.23551e-05
2.23514e-05
2.23527e-05
2.16669e-05
2.16686e-05
2.23555e-05
2.23509e-05
2.23537e-05
2.16714e-05
2.16651e-05
2.16638e-05
2.2351e-05
2.23513e-05
2.23479e-05
2.23481e-05
2.16651e-05
2.16617e-05
2.23513e-05
2.23506e-05
2.23491e-05
2.23481e-05
2.23521e-05
2.23481e-05
2.23488e-05
2.16652e-05
2.16639e-05
2.23532e-05
2.23488e-05
2.23498e-05
2.16642e-05
2.16597e-05
2.16519e-05
2.23473e-05
2.23467e-05
2.23353e-05
2.23317e-05
2.16572e-05
2.1649e-05
2.23484e-05
2.23474e-05
2.23361e-05
2.23353e-05
2.23469e-05
2.23313e-05
2.23308e-05
2.16597e-05
2.16515e-05
2.23482e-05
2.2336e-05
2.23325e-05
2.16494e-05
2.16469e-05
2.1646e-05
2.23313e-05
2.23293e-05
2.23277e-05
2.23274e-05
2.16446e-05
2.16461e-05
2.2332e-05
2.2331e-05
2.23284e-05
2.23269e-05
2.23287e-05
2.23292e-05
2.23271e-05
2.16463e-05
2.16452e-05
2.23297e-05
2.23286e-05
2.23276e-05
2.16449e-05
2.16431e-05
2.16482e-05
2.23293e-05
2.23291e-05
2.23294e-05
2.23292e-05
2.16435e-05
2.16483e-05
2.233e-05
2.23284e-05
2.23301e-05
2.23286e-05
2.23289e-05
2.23309e-05
2.2329e-05
2.16424e-05
2.16474e-05
2.23293e-05
2.23303e-05
2.23294e-05
2.16466e-05
2.16453e-05
2.16496e-05
2.2331e-05
2.23308e-05
2.23311e-05
2.23309e-05
2.16454e-05
2.16494e-05
2.23316e-05
2.233e-05
2.23318e-05
2.23302e-05
2.23304e-05
2.23323e-05
2.23306e-05
2.16445e-05
2.16488e-05
2.23309e-05
2.23318e-05
2.23311e-05
2.16482e-05
2.16465e-05
2.16498e-05
2.23326e-05
2.23325e-05
2.23322e-05
2.23322e-05
2.16464e-05
2.16496e-05
2.23333e-05
2.23317e-05
2.23327e-05
2.23315e-05
2.23322e-05
2.23327e-05
2.23324e-05
2.16457e-05
2.16491e-05
2.23327e-05
2.23324e-05
2.23326e-05
2.16492e-05
2.16467e-05
2.165e-05
2.23331e-05
2.23331e-05
2.23325e-05
2.23325e-05
2.16465e-05
2.16497e-05
2.23336e-05
2.23324e-05
2.2333e-05
2.2332e-05
2.23336e-05
2.23327e-05
2.23322e-05
2.1646e-05
2.16492e-05
2.23335e-05
2.23326e-05
2.23327e-05
2.16491e-05
2.16469e-05
2.165e-05
2.23333e-05
2.23333e-05
2.23325e-05
2.23325e-05
2.16466e-05
2.16497e-05
2.23338e-05
2.23329e-05
2.23331e-05
2.23322e-05
2.23329e-05
2.23327e-05
2.23323e-05
2.16461e-05
2.16492e-05
2.23335e-05
2.23326e-05
2.23328e-05
2.16491e-05
2.16469e-05
2.16499e-05
2.23333e-05
2.23333e-05
2.23325e-05
2.23325e-05
2.16466e-05
2.16497e-05
2.23338e-05
2.2333e-05
2.2333e-05
2.23321e-05
2.23331e-05
2.23327e-05
2.23322e-05
2.16461e-05
2.16492e-05
2.23335e-05
2.23325e-05
2.23327e-05
2.16491e-05
2.16468e-05
2.165e-05
2.23333e-05
2.23333e-05
2.23325e-05
2.23325e-05
2.16466e-05
2.16497e-05
2.23338e-05
2.23329e-05
2.2333e-05
2.23321e-05
2.2333e-05
2.23327e-05
2.23323e-05
2.16461e-05
2.16492e-05
2.23335e-05
2.23325e-05
2.23327e-05
2.1649e-05
2.16469e-05
2.165e-05
2.23333e-05
2.23333e-05
2.23325e-05
2.23325e-05
2.16466e-05
2.16497e-05
2.23338e-05
2.23329e-05
2.2333e-05
2.23321e-05
2.2333e-05
2.23327e-05
2.23323e-05
2.16461e-05
2.16492e-05
2.23335e-05
2.23326e-05
2.23328e-05
2.16491e-05
2.16468e-05
2.16499e-05
2.23333e-05
2.23333e-05
2.23325e-05
2.23325e-05
2.16466e-05
2.16497e-05
2.23338e-05
2.23329e-05
2.2333e-05
2.23321e-05
2.2333e-05
2.23327e-05
2.23323e-05
2.16461e-05
2.16492e-05
2.23335e-05
2.23326e-05
2.23327e-05
2.1649e-05
2.16468e-05
2.16499e-05
2.23333e-05
2.23333e-05
2.23325e-05
2.23325e-05
2.16466e-05
2.16497e-05
2.23338e-05
2.23329e-05
2.2333e-05
2.23321e-05
2.2333e-05
2.23327e-05
2.23323e-05
2.16461e-05
2.16492e-05
2.23335e-05
2.23326e-05
2.23327e-05
2.1649e-05
2.16468e-05
2.165e-05
2.23333e-05
2.23333e-05
2.23325e-05
2.23325e-05
2.16466e-05
2.16497e-05
2.23338e-05
2.23329e-05
2.2333e-05
2.23321e-05
2.2333e-05
2.23327e-05
2.23323e-05
2.16461e-05
2.16492e-05
2.23335e-05
2.23326e-05
2.23327e-05
2.16491e-05
2.16468e-05
2.165e-05
2.23333e-05
2.23333e-05
2.23325e-05
2.23325e-05
2.16466e-05
2.16497e-05
2.23338e-05
2.23329e-05
2.2333e-05
2.23321e-05
2.2333e-05
2.23327e-05
2.23323e-05
2.16461e-05
2.16492e-05
2.23335e-05
2.23325e-05
2.23327e-05
2.16491e-05
2.16469e-05
2.165e-05
2.23333e-05
2.23333e-05
2.23325e-05
2.23325e-05
2.16466e-05
2.16497e-05
2.23338e-05
2.23329e-05
2.2333e-05
2.23321e-05
2.2333e-05
2.23328e-05
2.23323e-05
2.16461e-05
2.16492e-05
2.23335e-05
2.23325e-05
2.23327e-05
2.16491e-05
2.16468e-05
2.16499e-05
2.23333e-05
2.23333e-05
2.23325e-05
2.23325e-05
2.16466e-05
2.16497e-05
2.23338e-05
2.23329e-05
2.2333e-05
2.23321e-05
2.2333e-05
2.23328e-05
2.23322e-05
2.16461e-05
2.16492e-05
2.23335e-05
2.23326e-05
2.23327e-05
2.1649e-05
2.16468e-05
2.16498e-05
2.23333e-05
2.23333e-05
2.23325e-05
2.23325e-05
2.16466e-05
2.16496e-05
2.23338e-05
2.23329e-05
2.2333e-05
2.23321e-05
2.2333e-05
2.23328e-05
2.23322e-05
2.16461e-05
2.16491e-05
2.23335e-05
2.23326e-05
2.23327e-05
2.16491e-05
2.16467e-05
2.16497e-05
2.23333e-05
2.23333e-05
2.23325e-05
2.23325e-05
2.16465e-05
2.16494e-05
2.23338e-05
2.23329e-05
2.2333e-05
2.23321e-05
2.2333e-05
2.2333e-05
2.23322e-05
2.1646e-05
2.1649e-05
2.23335e-05
2.23328e-05
2.23327e-05
2.16491e-05
2.16465e-05
2.16495e-05
2.23333e-05
2.23333e-05
2.23325e-05
2.23325e-05
2.16463e-05
2.16493e-05
2.23338e-05
2.23329e-05
2.2333e-05
2.23321e-05
2.23331e-05
2.23331e-05
2.23323e-05
2.16459e-05
2.16488e-05
2.23335e-05
2.23329e-05
2.23328e-05
2.16491e-05
2.16464e-05
2.16492e-05
2.23333e-05
2.23333e-05
2.23325e-05
2.23325e-05
2.16462e-05
2.1649e-05
2.23339e-05
2.2333e-05
2.23331e-05
2.23322e-05
2.23331e-05
2.23332e-05
2.23323e-05
2.16457e-05
2.16486e-05
2.23336e-05
2.2333e-05
2.23328e-05
2.16487e-05
2.16461e-05
2.16498e-05
2.23334e-05
2.23334e-05
2.23328e-05
2.23328e-05
2.16459e-05
2.16496e-05
2.2334e-05
2.2333e-05
2.23333e-05
2.23324e-05
2.23332e-05
2.23335e-05
2.23326e-05
2.16454e-05
2.16491e-05
2.23337e-05
2.23333e-05
2.23331e-05
2.1649e-05
2.16468e-05
2.16503e-05
2.23337e-05
2.23337e-05
2.23339e-05
2.23339e-05
2.16466e-05
2.165e-05
2.23343e-05
2.23334e-05
2.23344e-05
2.23335e-05
2.23335e-05
2.23344e-05
2.23336e-05
2.16461e-05
2.16495e-05
2.2334e-05
2.23343e-05
2.23341e-05
2.16493e-05
2.16473e-05
2.16825e-05
2.23339e-05
2.23339e-05
2.23633e-05
2.23632e-05
2.1647e-05
2.16822e-05
2.23344e-05
2.23335e-05
2.23637e-05
2.2363e-05
2.23336e-05
2.23641e-05
2.2363e-05
2.16465e-05
2.16818e-05
2.23341e-05
2.2364e-05
2.23634e-05
2.16814e-05
2.17279e-05
2.23713e-05
2.23711e-05
2.17274e-05
2.23716e-05
2.2371e-05
2.31611e-05
2.31611e-05
2.31609e-05
2.2371e-05
2.17271e-05
2.23713e-05
2.31485e-05
2.31492e-05
2.31492e-05
2.31489e-05
2.82998e-05
6.95297e-05
2.83001e-05
6.95259e-05
7.48277e-05
7.4824e-05
2.83017e-05
6.95337e-05
2.83027e-05
6.95295e-05
2.31506e-05
2.31492e-05
2.31503e-05
2.3149e-05
2.31497e-05
2.31481e-05
2.31494e-05
2.10809e-05
2.77281e-05
2.27583e-05
2.23545e-05
2.10804e-05
2.77243e-05
2.27592e-05
7.48288e-05
7.48236e-05
2.1082e-05
2.27588e-05
2.7727e-05
2.23553e-05
2.10813e-05
2.27602e-05
2.7724e-05
3.833e-05
3.83346e-05
2.16698e-05
3.83295e-05
3.83341e-05
2.83081e-05
6.9525e-05
2.83087e-05
6.95222e-05
7.48172e-05
7.48175e-05
2.83097e-05
6.95282e-05
2.83101e-05
6.95253e-05
2.31504e-05
2.31488e-05
2.31502e-05
2.31489e-05
2.31496e-05
2.31484e-05
2.31494e-05
2.1085e-05
2.77345e-05
2.27584e-05
2.23548e-05
2.10843e-05
2.77301e-05
2.27592e-05
7.48151e-05
7.48147e-05
2.10846e-05
2.27594e-05
2.77347e-05
2.23544e-05
2.10844e-05
2.27593e-05
2.77309e-05
3.83404e-05
3.8345e-05
2.16704e-05
3.834e-05
3.83447e-05
2.83139e-05
6.95236e-05
2.83154e-05
6.95221e-05
7.48157e-05
7.48175e-05
2.83155e-05
6.95269e-05
2.83167e-05
6.95254e-05
2.31503e-05
2.31484e-05
2.31502e-05
2.3148e-05
2.31499e-05
2.31478e-05
2.31498e-05
2.1087e-05
2.77397e-05
2.27585e-05
2.23549e-05
2.10862e-05
2.77349e-05
2.27596e-05
7.48107e-05
7.48131e-05
2.10878e-05
2.27585e-05
2.77404e-05
2.23535e-05
2.10871e-05
2.27585e-05
2.7736e-05
3.83493e-05
3.8354e-05
2.16714e-05
3.83486e-05
3.83534e-05
2.83177e-05
6.95246e-05
2.83199e-05
6.95233e-05
7.48167e-05
7.48193e-05
2.83189e-05
6.95278e-05
2.8321e-05
6.95262e-05
2.31511e-05
2.31478e-05
2.31509e-05
2.31473e-05
2.31508e-05
2.31467e-05
2.31505e-05
2.10887e-05
2.77438e-05
2.27591e-05
2.23543e-05
2.10879e-05
2.77386e-05
2.2759e-05
7.48113e-05
7.48142e-05
2.10897e-05
2.27577e-05
2.77448e-05
2.23527e-05
2.1089e-05
2.27577e-05
2.77399e-05
3.83567e-05
3.83613e-05
2.16724e-05
3.83552e-05
3.83598e-05
2.832e-05
6.95259e-05
2.83227e-05
6.95247e-05
7.48189e-05
7.4822e-05
2.83213e-05
6.95286e-05
2.83235e-05
6.95271e-05
2.31505e-05
2.31466e-05
2.31501e-05
2.31455e-05
2.3147e-05
2.31448e-05
2.31467e-05
2.10867e-05
2.77466e-05
2.27573e-05
2.23531e-05
2.10889e-05
2.77408e-05
2.27571e-05
7.48134e-05
7.48159e-05
2.1089e-05
2.27569e-05
2.77477e-05
2.23519e-05
2.10898e-05
2.27568e-05
2.77422e-05
3.83617e-05
3.83665e-05
2.16732e-05
3.83592e-05
3.83641e-05
2.83204e-05
6.95276e-05
2.83243e-05
6.95271e-05
7.48218e-05
7.48241e-05
2.83216e-05
6.95301e-05
2.83256e-05
6.95293e-05
2.31465e-05
2.31445e-05
2.31463e-05
2.31437e-05
2.31438e-05
2.31427e-05
2.31438e-05
2.10806e-05
2.77472e-05
2.2755e-05
2.23503e-05
2.10839e-05
2.77397e-05
2.27547e-05
7.4816e-05
7.48193e-05
2.10826e-05
2.27552e-05
2.77488e-05
2.23503e-05
2.10874e-05
2.2755e-05
2.77418e-05
3.83643e-05
3.83694e-05
2.16692e-05
3.83604e-05
3.83658e-05
2.83148e-05
6.95313e-05
2.83213e-05
6.95306e-05
7.48218e-05
7.48226e-05
2.83155e-05
6.95335e-05
2.83218e-05
6.95326e-05
2.31429e-05
2.31424e-05
2.31429e-05
2.31327e-05
2.31279e-05
2.31332e-05
2.31278e-05
2.10689e-05
2.77426e-05
2.27517e-05
2.23431e-05
2.10759e-05
2.7733e-05
2.27491e-05
7.48172e-05
7.4819e-05
2.1072e-05
2.27531e-05
2.77452e-05
2.23463e-05
2.10776e-05
2.27518e-05
2.77363e-05
3.83637e-05
3.8369e-05
2.16575e-05
3.83586e-05
3.83637e-05
2.83054e-05
6.95323e-05
2.83121e-05
6.95302e-05
7.48195e-05
7.48203e-05
2.83066e-05
6.95346e-05
2.83127e-05
6.95324e-05
2.31243e-05
2.31273e-05
2.3124e-05
2.31223e-05
2.31215e-05
2.31209e-05
2.31209e-05
2.10622e-05
2.77349e-05
2.27334e-05
2.23295e-05
2.1064e-05
2.77263e-05
2.27335e-05
7.48153e-05
7.48167e-05
2.10635e-05
2.27358e-05
2.77376e-05
2.23297e-05
2.10662e-05
2.2734e-05
2.7729e-05
3.83605e-05
3.83654e-05
2.16461e-05
3.83549e-05
3.83597e-05
2.83001e-05
6.95306e-05
2.83052e-05
6.9528e-05
7.48179e-05
7.48191e-05
2.8302e-05
6.95331e-05
2.83066e-05
6.95305e-05
2.31231e-05
2.31222e-05
2.31225e-05
2.31239e-05
2.31233e-05
2.31226e-05
2.31227e-05
2.10621e-05
2.77301e-05
2.27332e-05
2.23309e-05
2.10613e-05
2.77225e-05
2.27347e-05
7.48128e-05
7.48144e-05
2.1062e-05
2.27327e-05
2.77324e-05
2.23303e-05
2.10615e-05
2.27342e-05
2.77249e-05
3.83568e-05
3.83614e-05
2.16462e-05
3.83512e-05
3.83559e-05
2.82981e-05
6.95285e-05
2.83019e-05
6.95264e-05
7.48169e-05
7.48185e-05
2.83001e-05
6.95312e-05
2.83036e-05
6.95288e-05
2.31249e-05
2.31242e-05
2.31243e-05
2.31255e-05
2.31251e-05
2.31244e-05
2.31245e-05
2.10636e-05
2.7728e-05
2.27348e-05
2.23325e-05
2.10627e-05
2.77213e-05
2.27363e-05
7.48115e-05
7.48137e-05
2.10633e-05
2.27343e-05
2.77297e-05
2.23319e-05
2.10626e-05
2.27358e-05
2.7723e-05
3.83534e-05
3.83581e-05
2.1648e-05
3.83483e-05
3.83531e-05
2.82982e-05
6.95278e-05
2.83015e-05
6.95261e-05
7.48168e-05
7.48185e-05
2.83001e-05
6.95303e-05
2.83032e-05
6.95283e-05
2.31267e-05
2.3126e-05
2.31262e-05
2.31271e-05
2.31269e-05
2.31262e-05
2.31264e-05
2.1064e-05
2.77277e-05
2.27364e-05
2.23333e-05
2.10634e-05
2.77211e-05
2.27378e-05
7.48114e-05
7.48138e-05
2.10641e-05
2.27359e-05
2.77288e-05
2.23333e-05
2.10636e-05
2.27374e-05
2.77224e-05
3.83516e-05
3.83564e-05
2.16493e-05
3.83474e-05
3.83521e-05
2.82985e-05
6.95278e-05
2.83019e-05
6.95261e-05
7.48168e-05
7.48185e-05
2.83003e-05
6.95301e-05
2.83034e-05
6.95282e-05
2.31286e-05
2.31278e-05
2.3128e-05
2.31281e-05
2.31287e-05
2.3128e-05
2.31282e-05
2.10639e-05
2.77276e-05
2.27376e-05
2.23334e-05
2.10635e-05
2.77211e-05
2.27385e-05
7.48114e-05
7.48139e-05
2.10641e-05
2.27373e-05
2.77286e-05
2.23334e-05
2.10637e-05
2.27386e-05
2.77223e-05
3.83514e-05
3.83561e-05
2.16498e-05
3.83473e-05
3.83521e-05
2.82986e-05
6.95278e-05
2.8302e-05
6.95261e-05
7.48168e-05
7.48185e-05
2.83003e-05
6.953e-05
2.83035e-05
6.95282e-05
2.31298e-05
2.31295e-05
2.31294e-05
2.31282e-05
2.31289e-05
2.31287e-05
2.31286e-05
2.10639e-05
2.77276e-05
2.27376e-05
2.23335e-05
2.10635e-05
2.77211e-05
2.27385e-05
7.48115e-05
7.48139e-05
2.1064e-05
2.27375e-05
2.77286e-05
2.23334e-05
2.10636e-05
2.27384e-05
2.77224e-05
3.83514e-05
3.83562e-05
2.16497e-05
3.83474e-05
3.83521e-05
2.82986e-05
6.95278e-05
2.8302e-05
6.95261e-05
7.48168e-05
7.48185e-05
2.83004e-05
6.953e-05
2.83035e-05
6.95282e-05
2.31297e-05
2.31295e-05
2.31294e-05
2.31282e-05
2.31289e-05
2.31288e-05
2.31287e-05
2.10639e-05
2.77276e-05
2.27377e-05
2.23335e-05
2.10635e-05
2.77211e-05
2.27385e-05
7.48115e-05
7.48139e-05
2.10638e-05
2.27376e-05
2.77286e-05
2.23333e-05
2.10634e-05
2.27384e-05
2.77224e-05
3.83515e-05
3.83562e-05
2.16497e-05
3.83474e-05
3.83522e-05
2.82986e-05
6.95278e-05
2.83021e-05
6.95261e-05
7.48168e-05
7.48185e-05
2.83004e-05
6.953e-05
2.83036e-05
6.95282e-05
2.31297e-05
2.31295e-05
2.31294e-05
2.31281e-05
2.31289e-05
2.31288e-05
2.31287e-05
2.10638e-05
2.77277e-05
2.27377e-05
2.23335e-05
2.10635e-05
2.77212e-05
2.27385e-05
7.48115e-05
7.48139e-05
2.10638e-05
2.27375e-05
2.77286e-05
2.23333e-05
2.10634e-05
2.27384e-05
2.77224e-05
3.83515e-05
3.83562e-05
2.16497e-05
3.83474e-05
3.83522e-05
2.82986e-05
6.95278e-05
2.83021e-05
6.95261e-05
7.48168e-05
7.48185e-05
2.83003e-05
6.953e-05
2.83035e-05
6.95281e-05
2.31297e-05
2.31295e-05
2.31294e-05
2.31282e-05
2.3129e-05
2.31288e-05
2.31287e-05
2.10639e-05
2.77277e-05
2.27377e-05
2.23335e-05
2.10635e-05
2.77212e-05
2.27385e-05
7.48115e-05
7.4814e-05
2.10636e-05
2.27376e-05
2.77286e-05
2.23333e-05
2.10632e-05
2.27384e-05
2.77224e-05
3.83515e-05
3.83562e-05
2.16496e-05
3.83474e-05
3.83522e-05
2.82986e-05
6.95278e-05
2.8302e-05
6.95261e-05
7.48168e-05
7.48185e-05
2.83003e-05
6.953e-05
2.83035e-05
6.95281e-05
2.31297e-05
2.31295e-05
2.31294e-05
2.31282e-05
2.3129e-05
2.31288e-05
2.31287e-05
2.10638e-05
2.77276e-05
2.27377e-05
2.23335e-05
2.10635e-05
2.77212e-05
2.27385e-05
7.48115e-05
7.48139e-05
2.10635e-05
2.27375e-05
2.77286e-05
2.23333e-05
2.10631e-05
2.27384e-05
2.77224e-05
3.83515e-05
3.83562e-05
2.16497e-05
3.83474e-05
3.83522e-05
2.82986e-05
6.95278e-05
2.8302e-05
6.95261e-05
7.48168e-05
7.48185e-05
2.83003e-05
6.953e-05
2.83035e-05
6.95285e-05
2.31297e-05
2.31295e-05
2.31294e-05
2.31282e-05
2.31289e-05
2.31288e-05
2.31287e-05
2.10639e-05
2.77276e-05
2.27376e-05
2.23335e-05
2.10634e-05
2.77211e-05
2.27385e-05
7.48115e-05
7.4814e-05
2.10634e-05
2.27375e-05
2.77286e-05
2.23333e-05
2.10631e-05
2.27384e-05
2.77224e-05
3.83514e-05
3.83562e-05
2.16496e-05
3.83474e-05
3.83521e-05
2.82986e-05
6.95278e-05
2.8302e-05
6.95261e-05
7.48168e-05
7.48185e-05
2.83003e-05
6.95307e-05
2.83035e-05
6.95291e-05
2.31297e-05
2.31295e-05
2.31294e-05
2.31282e-05
2.31289e-05
2.31288e-05
2.31287e-05
2.10638e-05
2.77276e-05
2.27376e-05
2.23335e-05
2.10635e-05
2.77211e-05
2.27385e-05
7.48116e-05
7.48139e-05
2.10632e-05
2.27375e-05
2.77286e-05
2.23334e-05
2.10629e-05
2.27384e-05
2.77223e-05
3.83514e-05
3.83562e-05
2.16496e-05
3.83474e-05
3.83521e-05
2.82986e-05
6.95278e-05
2.8302e-05
6.95262e-05
7.48168e-05
7.48185e-05
2.83003e-05
6.95311e-05
2.83035e-05
6.95294e-05
2.31297e-05
2.31295e-05
2.31294e-05
2.31281e-05
2.31289e-05
2.31288e-05
2.31287e-05
2.10638e-05
2.77276e-05
2.27377e-05
2.23335e-05
2.10635e-05
2.77211e-05
2.27385e-05
7.48117e-05
7.48141e-05
2.10633e-05
2.27375e-05
2.77286e-05
2.23333e-05
2.10629e-05
2.27383e-05
2.77223e-05
3.83514e-05
3.83562e-05
2.16497e-05
3.83474e-05
3.83522e-05
2.82986e-05
6.95278e-05
2.83021e-05
6.95266e-05
7.48168e-05
7.48192e-05
2.83004e-05
6.95313e-05
2.83035e-05
6.953e-05
2.31297e-05
2.31295e-05
2.31294e-05
2.31282e-05
2.3129e-05
2.31287e-05
2.31287e-05
2.10639e-05
2.77275e-05
2.27377e-05
2.23335e-05
2.10635e-05
2.77209e-05
2.27385e-05
7.48115e-05
7.48145e-05
2.10633e-05
2.27375e-05
2.77285e-05
2.23333e-05
2.10628e-05
2.27383e-05
2.77222e-05
3.83514e-05
3.83562e-05
2.16497e-05
3.83474e-05
3.83522e-05
2.82985e-05
6.95283e-05
2.83021e-05
6.95282e-05
7.48173e-05
7.48229e-05
2.83002e-05
6.95319e-05
2.83036e-05
6.95317e-05
2.31297e-05
2.31295e-05
2.31294e-05
2.31282e-05
2.3129e-05
2.31287e-05
2.31287e-05
2.1064e-05
2.77273e-05
2.27377e-05
2.23335e-05
2.10635e-05
2.772e-05
2.27385e-05
7.4813e-05
7.48186e-05
2.10632e-05
2.27375e-05
2.77282e-05
2.23333e-05
2.10629e-05
2.27383e-05
2.77212e-05
3.83517e-05
3.83565e-05
2.16497e-05
3.83477e-05
3.83525e-05
2.82982e-05
6.9529e-05
2.83027e-05
6.95296e-05
7.48189e-05
7.48285e-05
2.83e-05
6.95328e-05
2.83042e-05
6.95332e-05
2.31297e-05
2.31295e-05
2.31294e-05
2.31282e-05
2.31289e-05
2.31288e-05
2.31287e-05
2.10632e-05
2.77274e-05
2.27377e-05
2.23335e-05
2.10639e-05
2.77188e-05
2.27385e-05
7.4815e-05
7.48247e-05
2.10626e-05
2.27375e-05
2.77283e-05
2.23333e-05
2.10633e-05
2.27384e-05
2.772e-05
3.83536e-05
3.83583e-05
2.16495e-05
3.83486e-05
3.83533e-05
2.8299e-05
6.95294e-05
2.83042e-05
6.95334e-05
7.48188e-05
7.48316e-05
2.83007e-05
6.95332e-05
2.83057e-05
6.95371e-05
2.31297e-05
2.31295e-05
2.31294e-05
2.31282e-05
2.3129e-05
2.31288e-05
2.31287e-05
2.10645e-05
2.77272e-05
2.27377e-05
2.23336e-05
2.10655e-05
2.77173e-05
2.27385e-05
7.48165e-05
7.48304e-05
2.10638e-05
2.27376e-05
2.77281e-05
2.23333e-05
2.10648e-05
2.27384e-05
2.77185e-05
3.83571e-05
3.83617e-05
2.16496e-05
3.8351e-05
3.83557e-05
2.82994e-05
6.95333e-05
2.83047e-05
6.95426e-05
7.48109e-05
7.48306e-05
2.83011e-05
6.95371e-05
2.83062e-05
6.95464e-05
2.31297e-05
2.31295e-05
2.31294e-05
2.31282e-05
2.3129e-05
2.31288e-05
2.31286e-05
2.10652e-05
2.77253e-05
2.27378e-05
2.23337e-05
2.1066e-05
2.77128e-05
2.27386e-05
7.48105e-05
7.48304e-05
2.10645e-05
2.27376e-05
2.77262e-05
2.23335e-05
2.10652e-05
2.27384e-05
2.77139e-05
3.83611e-05
3.83657e-05
2.16496e-05
3.83523e-05
3.8357e-05
2.83006e-05
6.95387e-05
2.83058e-05
6.95509e-05
7.4794e-05
7.48264e-05
2.83023e-05
6.95426e-05
2.83072e-05
6.95552e-05
2.31297e-05
2.31295e-05
2.31294e-05
2.31282e-05
2.3129e-05
2.31288e-05
2.31286e-05
2.10662e-05
2.77229e-05
2.27379e-05
2.23338e-05
2.10677e-05
2.77088e-05
2.27386e-05
7.47942e-05
7.48267e-05
2.10654e-05
2.27377e-05
2.77242e-05
2.23336e-05
2.10669e-05
2.27385e-05
2.77108e-05
3.83622e-05
3.83668e-05
2.16496e-05
3.83461e-05
3.83507e-05
2.8303e-05
6.95277e-05
2.83064e-05
6.95438e-05
7.47709e-05
7.48198e-05
2.83047e-05
6.95328e-05
2.83079e-05
6.95492e-05
2.31297e-05
2.31295e-05
2.31294e-05
2.31283e-05
2.3129e-05
2.31288e-05
2.31286e-05
2.10669e-05
2.77314e-05
2.27381e-05
2.2334e-05
2.10695e-05
2.7714e-05
2.2739e-05
7.47718e-05
7.48207e-05
2.10662e-05
2.27379e-05
2.77334e-05
2.23338e-05
2.10688e-05
2.27388e-05
2.77164e-05
3.8356e-05
3.83604e-05
2.16496e-05
3.83302e-05
3.83344e-05
2.83068e-05
6.94925e-05
2.83065e-05
6.95184e-05
7.47434e-05
7.48095e-05
2.83085e-05
6.94975e-05
2.83078e-05
6.95232e-05
2.31298e-05
2.31296e-05
2.31294e-05
2.31292e-05
2.31296e-05
2.31294e-05
2.31292e-05
2.10672e-05
2.77533e-05
2.27384e-05
2.23344e-05
2.10725e-05
2.7727e-05
2.27392e-05
7.47451e-05
7.48105e-05
2.10666e-05
2.27382e-05
2.77554e-05
2.23343e-05
2.10719e-05
2.27389e-05
2.7729e-05
3.8342e-05
3.83457e-05
2.16496e-05
3.83081e-05
3.83117e-05
2.83052e-05
6.942e-05
2.8301e-05
6.94566e-05
7.47136e-05
7.47868e-05
2.83071e-05
6.94245e-05
2.83026e-05
6.94612e-05
2.3131e-05
2.31309e-05
2.31307e-05
2.31394e-05
2.31396e-05
2.31395e-05
2.31393e-05
2.10649e-05
2.77916e-05
2.274e-05
2.23388e-05
2.10757e-05
2.77205e-05
2.27397e-05
7.47141e-05
7.4787e-05
2.10644e-05
2.27398e-05
2.7793e-05
2.23386e-05
2.10751e-05
2.27395e-05
2.77213e-05
3.83212e-05
3.83249e-05
2.16541e-05
3.82631e-05
3.82666e-05
2.49026e-05
6.71599e-05
2.80869e-05
6.24904e-05
7.14554e-05
5.07165e-05
2.49042e-05
6.71648e-05
2.80893e-05
6.24972e-05
2.35811e-05
2.34099e-05
2.341e-05
2.3069e-05
2.35738e-05
2.33765e-05
2.33765e-05
2.10681e-05
2.72503e-05
2.27931e-05
2.24176e-05
2.10939e-05
3.06663e-05
2.28795e-05
7.14552e-05
5.07147e-05
2.10676e-05
2.2793e-05
2.72503e-05
2.24175e-05
2.10934e-05
2.28794e-05
3.06642e-05
3.84221e-05
3.84249e-05
2.18296e-05
3.56952e-05
3.56957e-05
7.48363e-05
7.48347e-05
3.83218e-05
3.83244e-05
6.95287e-05
2.82962e-05
6.95331e-05
6.95374e-05
2.82971e-05
2.77192e-05
2.27595e-05
2.10795e-05
2.23538e-05
2.77238e-05
2.27598e-05
2.77263e-05
2.10799e-05
7.48313e-05
7.48381e-05
2.16651e-05
3.83323e-05
3.83233e-05
3.83277e-05
3.83186e-05
7.48266e-05
7.48324e-05
6.95327e-05
2.82994e-05
2.772e-05
2.27589e-05
2.10804e-05
6.95287e-05
2.82991e-05
2.27587e-05
2.77194e-05
2.10797e-05
2.10809e-05
2.23538e-05
2.77208e-05
2.27583e-05
2.77234e-05
2.27588e-05
2.10797e-05
2.83011e-05
6.95296e-05
6.9534e-05
2.82987e-05
2.10795e-05
2.23535e-05
2.27591e-05
2.77217e-05
2.27592e-05
2.77241e-05
2.10794e-05
2.8301e-05
6.95302e-05
6.95345e-05
2.82986e-05
7.48322e-05
3.83217e-05
3.83229e-05
7.48361e-05
2.27588e-05
2.77196e-05
2.10807e-05
2.23541e-05
2.27596e-05
2.77227e-05
2.77252e-05
2.10797e-05
6.95319e-05
2.82968e-05
6.95325e-05
6.95367e-05
2.82986e-05
2.16648e-05
3.83253e-05
3.83299e-05
3.83208e-05
3.83254e-05
7.48312e-05
7.48371e-05
7.48304e-05
7.48362e-05
7.48337e-05
7.48271e-05
7.48326e-05
7.48262e-05
3.83242e-05
3.8327e-05
2.16692e-05
3.83291e-05
3.83321e-05
7.48207e-05
7.48252e-05
7.48196e-05
7.48242e-05
2.1666e-05
3.83349e-05
3.83382e-05
3.83296e-05
3.83327e-05
2.83009e-05
6.95345e-05
2.83006e-05
6.95306e-05
2.1082e-05
2.77261e-05
2.27595e-05
2.23537e-05
2.10825e-05
2.77239e-05
2.27594e-05
2.10825e-05
2.77305e-05
2.27597e-05
2.23552e-05
2.10828e-05
2.77275e-05
2.27596e-05
2.83036e-05
6.95237e-05
6.95273e-05
2.83044e-05
2.83047e-05
6.95289e-05
6.95322e-05
2.83054e-05
2.10846e-05
2.23532e-05
2.77277e-05
2.27584e-05
2.77306e-05
2.27586e-05
2.10837e-05
2.10853e-05
2.23548e-05
2.77306e-05
2.27587e-05
2.7734e-05
2.27588e-05
2.1083e-05
3.83331e-05
3.83247e-05
2.167e-05
3.83363e-05
3.83281e-05
7.48246e-05
7.48195e-05
7.4819e-05
7.4823e-05
2.16671e-05
3.83407e-05
3.83328e-05
3.83372e-05
3.83295e-05
7.4815e-05
7.4819e-05
2.10826e-05
2.77272e-05
2.27589e-05
2.23534e-05
2.10835e-05
2.77249e-05
2.27587e-05
2.83017e-05
6.95301e-05
2.83018e-05
6.95255e-05
2.10827e-05
2.27586e-05
2.77266e-05
2.23529e-05
2.10828e-05
2.27585e-05
2.7724e-05
2.83051e-05
6.95268e-05
6.9531e-05
2.83061e-05
2.10849e-05
2.23528e-05
2.77289e-05
2.27578e-05
2.77318e-05
2.2758e-05
2.1083e-05
2.83051e-05
6.95232e-05
6.95271e-05
2.83061e-05
2.10852e-05
2.23526e-05
2.27575e-05
2.77278e-05
2.27577e-05
2.7731e-05
2.10829e-05
2.83023e-05
6.95311e-05
2.8302e-05
6.95271e-05
2.10813e-05
2.27606e-05
2.77283e-05
2.23549e-05
2.10821e-05
2.27605e-05
2.77254e-05
2.83022e-05
6.95317e-05
2.83019e-05
6.95278e-05
2.10839e-05
2.23544e-05
2.77274e-05
2.27585e-05
2.7731e-05
2.2759e-05
2.10838e-05
2.83059e-05
6.95253e-05
6.95288e-05
2.83061e-05
2.10841e-05
2.23546e-05
2.27599e-05
2.77286e-05
2.27601e-05
2.77319e-05
2.10825e-05
2.83058e-05
6.9526e-05
6.95294e-05
2.83059e-05
3.83246e-05
3.83254e-05
2.16692e-05
3.83275e-05
3.833e-05
7.48337e-05
7.48271e-05
7.4817e-05
7.48221e-05
2.16661e-05
3.83315e-05
3.83356e-05
3.83285e-05
3.83305e-05
7.48206e-05
7.48251e-05
2.10822e-05
2.27596e-05
2.77293e-05
2.23555e-05
2.10826e-05
2.27595e-05
2.77264e-05
2.83007e-05
6.95332e-05
2.83003e-05
6.95289e-05
2.83011e-05
6.95339e-05
2.83012e-05
6.95301e-05
2.10851e-05
2.2355e-05
2.27596e-05
2.77278e-05
2.27599e-05
2.77306e-05
2.10841e-05
2.10849e-05
2.2355e-05
2.27587e-05
2.77295e-05
2.27589e-05
2.77329e-05
2.10827e-05
2.83044e-05
6.95268e-05
6.95304e-05
2.83051e-05
2.83045e-05
6.95284e-05
6.95317e-05
2.83055e-05
7.48284e-05
7.48233e-05
7.48276e-05
7.48225e-05
2.16667e-05
3.83357e-05
3.83403e-05
3.83302e-05
3.83347e-05
7.48183e-05
7.48221e-05
7.48175e-05
7.48214e-05
7.48204e-05
7.48173e-05
7.48195e-05
7.48162e-05
3.83355e-05
3.8339e-05
2.16691e-05
3.83405e-05
3.83424e-05
7.48166e-05
7.48173e-05
7.48154e-05
7.48161e-05
2.16661e-05
3.83459e-05
3.83463e-05
3.8341e-05
3.83431e-05
2.8309e-05
6.95306e-05
2.83089e-05
6.95277e-05
2.10849e-05
2.77342e-05
2.27592e-05
2.23535e-05
2.10864e-05
2.7731e-05
2.27591e-05
2.10843e-05
2.7737e-05
2.27595e-05
2.23553e-05
2.10848e-05
2.77334e-05
2.27594e-05
2.83116e-05
6.95218e-05
6.95241e-05
2.83114e-05
2.83125e-05
6.95277e-05
6.95297e-05
2.83122e-05
2.10871e-05
2.2353e-05
2.77338e-05
2.27584e-05
2.77373e-05
2.27586e-05
2.1085e-05
2.10871e-05
2.23549e-05
2.7736e-05
2.27589e-05
2.77397e-05
2.27589e-05
2.10851e-05
3.83416e-05
3.83341e-05
2.16714e-05
3.83451e-05
3.83373e-05
7.48149e-05
7.48131e-05
7.48169e-05
7.48174e-05
2.16684e-05
3.83498e-05
3.83418e-05
3.83459e-05
3.83386e-05
7.48121e-05
7.48131e-05
2.10845e-05
2.77356e-05
2.27586e-05
2.23536e-05
2.10849e-05
2.77323e-05
2.27586e-05
2.83098e-05
6.95249e-05
2.83094e-05
6.95215e-05
2.10842e-05
2.27583e-05
2.77346e-05
2.23529e-05
2.10847e-05
2.27583e-05
2.77311e-05
2.83129e-05
6.9525e-05
6.95273e-05
2.8313e-05
2.10872e-05
2.23532e-05
2.77351e-05
2.27582e-05
2.77389e-05
2.27582e-05
2.10851e-05
2.8313e-05
6.9521e-05
6.95235e-05
2.8313e-05
2.10867e-05
2.23525e-05
2.2758e-05
2.77339e-05
2.27581e-05
2.77378e-05
2.10846e-05
2.83092e-05
6.95272e-05
2.83095e-05
6.95242e-05
2.10835e-05
2.27598e-05
2.77349e-05
2.2355e-05
2.10843e-05
2.27596e-05
2.77315e-05
2.83089e-05
6.95278e-05
2.83093e-05
6.95249e-05
2.10878e-05
2.23547e-05
2.77327e-05
2.27585e-05
2.77366e-05
2.2759e-05
2.10859e-05
2.83124e-05
6.95243e-05
6.95263e-05
2.83119e-05
2.10861e-05
2.23546e-05
2.27585e-05
2.77341e-05
2.27586e-05
2.77378e-05
2.10839e-05
2.83122e-05
6.9525e-05
6.95269e-05
2.83115e-05
3.83326e-05
3.83362e-05
2.16692e-05
3.8336e-05
3.8341e-05
7.48203e-05
7.48173e-05
7.48118e-05
7.48148e-05
2.16662e-05
3.83408e-05
3.83464e-05
3.83372e-05
3.83415e-05
7.48168e-05
7.48173e-05
2.10842e-05
2.27595e-05
2.77359e-05
2.23555e-05
2.10845e-05
2.27594e-05
2.77325e-05
2.83088e-05
6.95285e-05
2.83087e-05
6.95252e-05
2.83092e-05
6.95302e-05
2.83088e-05
6.95274e-05
2.10874e-05
2.23539e-05
2.27586e-05
2.77337e-05
2.27588e-05
2.77372e-05
2.10864e-05
2.10871e-05
2.2355e-05
2.27592e-05
2.77352e-05
2.27592e-05
2.77388e-05
2.10857e-05
2.83122e-05
6.95246e-05
6.95271e-05
2.8312e-05
2.83124e-05
6.95271e-05
6.95294e-05
2.83124e-05
7.48181e-05
7.48169e-05
7.48174e-05
7.48163e-05
2.16674e-05
3.83445e-05
3.83494e-05
3.83409e-05
3.83456e-05
7.48166e-05
7.48169e-05
7.4816e-05
7.48163e-05
7.48166e-05
7.48167e-05
7.48155e-05
7.48153e-05
3.83464e-05
3.83468e-05
2.16699e-05
3.83493e-05
3.83498e-05
7.48171e-05
7.48167e-05
7.48155e-05
7.48154e-05
2.16669e-05
3.83526e-05
3.83531e-05
3.83498e-05
3.83503e-05
2.83148e-05
6.95301e-05
2.83154e-05
6.95282e-05
2.10848e-05
2.77401e-05
2.27592e-05
2.23537e-05
2.10867e-05
2.77363e-05
2.27592e-05
2.10851e-05
2.77423e-05
2.27599e-05
2.23554e-05
2.10869e-05
2.77384e-05