/*--------------------------------*- C++ -*----------------------------------*\
| =========                 |                                                 |
| \\      /  F ield         | OpenFOAM: The Open Source CFD Toolbox           |
|  \\    /   O peration     | Version:  v1912                                 |
|   \\  /    A nd           | Website:  www.openfoam.com                      |
|    \\/     M anipulation  |                                                 |
\*---------------------------------------------------------------------------*/
FoamFile
{
    version     2.0;
    format      ascii;
    class       volScalarField;
    location    "40";
    object      nut;
}
// * * * * * * * * * * * * * * * * * * * * * * * * * * * * * * * * * * * * * //

dimensions      [0 2 -1 0 0 0 0];


internalField   nonuniform List<scalar> 
57062
(
0.000207361
0.000171076
0.000171071
0.000141559
0.000207356
0.000171076
0.000171074
0.000141556
0.000207369
0.000171068
0.000171053
0.000141555
0.000207351
0.000171059
0.000171037
0.000141552
0.000207326
0.000171045
0.000171019
0.000141549
0.000207321
0.000171027
0.000171011
0.000141516
0.000207317
0.000170992
0.000170997
0.000141436
0.000207114
0.000170831
0.000170832
0.000141339
0.00020712
0.000170885
0.00017086
0.000141349
0.000207209
0.000170923
0.000170904
0.00014139
0.000207235
0.000170942
0.000170928
0.00014141
0.00020726
0.000170946
0.000170935
0.000141416
0.000207274
0.000170947
0.000170937
0.000141414
0.000207278
0.000170947
0.000170937
0.000141414
0.000207276
0.000170947
0.000170936
0.000141414
0.000207276
0.000170947
0.000170936
0.000141413
0.000207276
0.000170947
0.000170936
0.000141414
0.000207276
0.000170947
0.000170937
0.000141413
0.000207277
0.000170947
0.000170937
0.000141413
0.000207276
0.000170947
0.000170937
0.000141414
0.000207276
0.000170947
0.000170936
0.000141414
0.000207277
0.000170948
0.000170936
0.000141414
0.000207277
0.000170949
0.000170937
0.000141413
0.000207276
0.00017095
0.000170939
0.000141415
0.000207277
0.000170954
0.000170943
0.000141417
0.000207277
0.000170958
0.000170947
0.00014142
0.000207278
0.000170966
0.000170955
0.000141421
0.000207281
0.00017098
0.00017097
0.000141428
0.000207299
0.000170985
0.000170975
0.000141457
0.000208716
0.00017421
0.000174207
0.000145529
0.000141738
0.000171041
0.00017105
0.000141761
0.000171061
0.000171036
0.000171076
0.000171052
0.000141738
0.000171074
0.000171073
0.000141751
0.000141554
0.000141728
0.000171041
0.00017106
0.00017104
0.000171055
0.000141579
0.000141763
0.000171061
0.000171036
0.000171058
0.000171033
0.000171061
0.000171076
0.000171056
0.000141555
0.000141732
0.000171082
0.000171077
0.000171077
0.000141748
0.000141546
0.00014173
0.000171044
0.000171059
0.00017104
0.000171053
0.000141582
0.000141763
0.000171063
0.000171036
0.000171061
0.000171029
0.000171061
0.00017107
0.000171053
0.00014155
0.000141731
0.000171081
0.000171055
0.000171073
0.000141746
0.00014155
0.000141731
0.000171045
0.000171056
0.000171038
0.000171048
0.00014158
0.000141755
0.000171066
0.000171029
0.00017105
0.000171026
0.000171054
0.00017106
0.000171047
0.00014155
0.000141729
0.000171073
0.000171039
0.000171066
0.000141744
0.000141548
0.00014172
0.000171039
0.000171046
0.000171037
0.000171043
0.000141571
0.00014174
0.00017105
0.000171013
0.000171036
0.000170996
0.000171046
0.000171044
0.000171046
0.000141546
0.000141715
0.000171065
0.00017102
0.000171063
0.000141742
0.000141537
0.000141698
0.000171025
0.000171036
0.00017101
0.00017101
0.000141556
0.0001417
0.000171021
0.000170996
0.000171019
0.000170985
0.00017104
0.000171032
0.000171023
0.000141533
0.000141692
0.000171053
0.000171011
0.000171045
0.00014172
0.000141513
0.000141652
0.000171005
0.000171004
0.000170976
0.000170979
0.000141512
0.000141644
0.00017102
0.000170981
0.000171007
0.000170961
0.000171016
0.000171007
0.000170987
0.000141506
0.000141646
0.000171039
0.000171002
0.000171012
0.000141654
0.000141462
0.000141571
0.000170971
0.000170968
0.000170864
0.000170822
0.000141449
0.000141554
0.000171002
0.000170958
0.000170889
0.000170856
0.000170971
0.000170843
0.000170816
0.000141455
0.000141562
0.000170999
0.000170881
0.000170849
0.000141552
0.000141371
0.000141539
0.000170826
0.000170804
0.000170822
0.000170824
0.00014136
0.000141552
0.000170851
0.000170816
0.000170847
0.000170807
0.000170802
0.000170872
0.000170828
0.000141361
0.000141529
0.000170827
0.000170844
0.000170844
0.000141534
0.000141363
0.000141583
0.000170854
0.000170851
0.00017088
0.000170873
0.000141378
0.000141595
0.000170871
0.00017083
0.0001709
0.000170857
0.000170854
0.000170919
0.000170875
0.000141354
0.000141572
0.000170872
0.000170899
0.000170893
0.000141576
0.000141406
0.00014161
0.000170897
0.00017089
0.000170907
0.000170897
0.000141419
0.000141615
0.000170917
0.000170874
0.000170927
0.000170883
0.000170891
0.000170941
0.000170897
0.000141395
0.0001416
0.00017091
0.000170927
0.000170917
0.0001416
0.000141429
0.00014161
0.000170922
0.000170912
0.000170921
0.000170914
0.000141434
0.000141615
0.000170942
0.000170899
0.000170939
0.000170901
0.000170911
0.000170947
0.00017092
0.000141419
0.0001416
0.000170932
0.000170935
0.000170937
0.000141608
0.000141429
0.000141611
0.000170926
0.00017092
0.000170924
0.000170917
0.000141434
0.000141616
0.000170945
0.000170907
0.000170943
0.000170906
0.000170932
0.000170948
0.000170918
0.000141419
0.000141602
0.000170944
0.000170938
0.000170938
0.000141607
0.00014143
0.000141611
0.000170929
0.000170922
0.000170923
0.000170917
0.000141434
0.000141616
0.000170947
0.000170912
0.000170942
0.000170908
0.000170922
0.000170948
0.000170919
0.000141421
0.000141602
0.000170943
0.000170938
0.000170938
0.000141607
0.000141429
0.000141611
0.000170928
0.000170921
0.000170923
0.000170916
0.000141434
0.000141616
0.000170947
0.000170912
0.000170941
0.000170907
0.000170923
0.000170948
0.000170918
0.000141421
0.000141602
0.000170943
0.000170937
0.000170938
0.000141607
0.000141429
0.000141611
0.000170928
0.000170921
0.000170922
0.000170916
0.000141434
0.000141616
0.000170946
0.000170912
0.000170941
0.000170907
0.000170923
0.000170948
0.000170918
0.000141421
0.000141602
0.000170942
0.000170937
0.000170937
0.000141605
0.000141429
0.000141611
0.000170927
0.000170921
0.000170923
0.000170916
0.000141434
0.000141616
0.000170946
0.000170911
0.000170941
0.000170906
0.000170923
0.000170948
0.000170918
0.00014142
0.000141602
0.000170942
0.000170938
0.000170937
0.000141606
0.000141429
0.000141611
0.000170928
0.000170921
0.000170922
0.000170916
0.000141434
0.000141616
0.000170946
0.000170911
0.000170941
0.000170906
0.000170923
0.000170948
0.000170918
0.00014142
0.000141602
0.000170942
0.000170938
0.000170937
0.000141605
0.000141429
0.000141611
0.000170927
0.000170921
0.000170922
0.000170916
0.000141434
0.000141616
0.000170946
0.000170911
0.000170941
0.000170906
0.000170922
0.000170948
0.000170918
0.00014142
0.000141602
0.000170942
0.000170939
0.000170937
0.000141605
0.000141429
0.000141611
0.000170927
0.00017092
0.000170922
0.000170916
0.000141434
0.000141616
0.000170946
0.000170911
0.000170941
0.000170906
0.000170922
0.000170948
0.000170918
0.000141421
0.000141602
0.000170942
0.000170938
0.000170937
0.000141606
0.000141429
0.000141611
0.000170928
0.000170921
0.000170923
0.000170916
0.000141434
0.000141616
0.000170946
0.000170911
0.000170941
0.000170906
0.000170923
0.000170948
0.000170918
0.000141421
0.000141602
0.000170942
0.000170937
0.000170937
0.000141607
0.000141429
0.000141611
0.000170928
0.000170921
0.000170923
0.000170916
0.000141434
0.000141616
0.000170946
0.000170911
0.000170942
0.000170906
0.000170922
0.000170949
0.000170918
0.00014142
0.000141601
0.000170942
0.000170937
0.000170937
0.000141607
0.000141429
0.000141611
0.000170928
0.000170921
0.000170923
0.000170916
0.000141434
0.000141616
0.000170947
0.000170911
0.000170942
0.000170906
0.000170923
0.00017095
0.000170918
0.00014142
0.000141602
0.000170942
0.000170938
0.000170937
0.000141605
0.00014143
0.000141611
0.000170928
0.000170921
0.000170924
0.000170917
0.000141434
0.000141616
0.000170947
0.000170912
0.000170943
0.000170907
0.000170923
0.00017095
0.000170918
0.000141421
0.000141601
0.000170942
0.00017094
0.000170938
0.000141607
0.000141429
0.00014161
0.000170929
0.000170922
0.000170925
0.000170918
0.000141434
0.000141616
0.000170948
0.000170913
0.000170945
0.000170909
0.000170924
0.000170954
0.00017092
0.00014142
0.000141601
0.000170943
0.000170943
0.00017094
0.000141608
0.000141429
0.000141611
0.000170931
0.000170924
0.000170929
0.000170922
0.000141434
0.000141616
0.00017095
0.000170915
0.000170948
0.000170913
0.000170926
0.000170958
0.000170924
0.00014142
0.000141602
0.000170945
0.000170947
0.000170944
0.000141611
0.00014143
0.000141611
0.000170935
0.000170928
0.000170936
0.000170929
0.000141435
0.000141617
0.000170954
0.000170919
0.000170955
0.00017092
0.00017093
0.000170965
0.000170931
0.000141422
0.000141603
0.00017095
0.000170954
0.000170951
0.00014161
0.00014143
0.000141622
0.000170942
0.000170936
0.000170949
0.000170943
0.000141436
0.000141627
0.000170962
0.000170926
0.000170968
0.000170933
0.000170938
0.000170977
0.000170945
0.000141423
0.000141613
0.000170957
0.000170966
0.000170965
0.000141618
0.000141443
0.000141649
0.000170957
0.000170952
0.000170999
0.000170994
0.000141448
0.000141654
0.000170976
0.000170942
0.00017102
0.000170985
0.000170953
0.000171026
0.000170994
0.000141435
0.00014164
0.000170973
0.000171017
0.000171017
0.000141644
0.00014147
0.000143324
0.000170957
0.000170952
0.00017312
0.000173115
0.000141475
0.000143327
0.000170978
0.000170943
0.000173135
0.000173111
0.000170952
0.000173147
0.000173116
0.000141462
0.000143318
0.000170975
0.000173143
0.000173133
0.000143324
0.000145541
0.000174192
0.000174187
0.000145541
0.000174204
0.000174184
0.000208707
0.000208707
0.000208705
0.000174188
0.000145534
0.000174202
0.000207362
0.000207363
0.000207357
0.000207358
3.87198e-05
4.93693e-05
3.87135e-05
4.9368e-05
2.4483e-05
2.44824e-05
3.8725e-05
4.93659e-05
3.87188e-05
4.93644e-05
0.000207369
0.000207357
0.000207364
0.000207358
0.000207361
0.000207352
0.000207359
7.54342e-05
4.61448e-05
0.00019175
0.000171081
7.54096e-05
4.61568e-05
0.000191752
2.44812e-05
2.44803e-05
7.54377e-05
0.000191751
4.61476e-05
0.000171084
7.54115e-05
0.000191759
4.61597e-05
3.88219e-05
3.88189e-05
0.000141758
3.88262e-05
3.88232e-05
3.87317e-05
4.93677e-05
3.87231e-05
4.93667e-05
2.44813e-05
2.44813e-05
3.87375e-05
4.9364e-05
3.87293e-05
4.93629e-05
0.000207375
0.000207355
0.000207363
0.000207372
0.000207375
0.000207355
0.000207359
7.54459e-05
4.6154e-05
0.000191746
0.000171076
7.54199e-05
4.61661e-05
0.000191747
2.44789e-05
2.44789e-05
7.54391e-05
0.000191756
4.61577e-05
0.000171064
7.5416e-05
0.000191745
4.61698e-05
3.88351e-05
3.88322e-05
0.000141755
3.88396e-05
3.88368e-05
3.87415e-05
4.93672e-05
3.8734e-05
4.93667e-05
2.4481e-05
2.44813e-05
3.87472e-05
4.93635e-05
3.87401e-05
4.9363e-05
0.000207377
0.000207344
0.000207363
0.000207353
0.00020737
0.000207341
0.000207361
7.54468e-05
4.61631e-05
0.000191741
0.000171067
7.54189e-05
4.61748e-05
0.000191746
2.44782e-05
2.44786e-05
7.54468e-05
0.000191743
4.61673e-05
0.000171045
7.54191e-05
0.000191735
4.61788e-05
3.88459e-05
3.88431e-05
0.000141754
3.88503e-05
3.88475e-05
3.87487e-05
4.93675e-05
3.87421e-05
4.93671e-05
2.44812e-05
2.44816e-05
3.87537e-05
4.93638e-05
3.87479e-05
4.93633e-05
0.000207372
0.000207329
0.000207368
0.000207328
0.00020737
0.00020732
0.000207376
7.54481e-05
4.61707e-05
0.000191743
0.000171047
7.54193e-05
4.61815e-05
0.000191739
2.44783e-05
2.44788e-05
7.5448e-05
0.000191726
4.6175e-05
0.000171024
7.54195e-05
0.000191709
4.61856e-05
3.88553e-05
3.88525e-05
0.000141751
3.88588e-05
3.88559e-05
3.8754e-05
4.9368e-05
3.87483e-05
4.93676e-05
2.44815e-05
2.4482e-05
3.87594e-05
4.93641e-05
3.87533e-05
4.93636e-05
0.000207368
0.00020732
0.000207373
0.000207322
0.000207343
0.000207313
0.000207337
7.54291e-05
4.61759e-05
0.000191728
0.000171044
7.54185e-05
4.61856e-05
0.000191725
2.44787e-05
2.44791e-05
7.54368e-05
0.000191712
4.61802e-05
0.000171018
7.54164e-05
0.000191713
4.61899e-05
3.88618e-05
3.88591e-05
0.000141746
3.88639e-05
3.88614e-05
3.87543e-05
4.93686e-05
3.87514e-05
4.93684e-05
2.4482e-05
2.44824e-05
3.87597e-05
4.93646e-05
3.87579e-05
4.93643e-05
0.000207339
0.000207311
0.000207331
0.000207316
0.000207316
0.0002073
0.000207303
7.53922e-05
4.61756e-05
0.000191708
0.000171024
7.53856e-05
4.61797e-05
0.000191706
2.44791e-05
2.44796e-05
7.53965e-05
0.000191705
4.61814e-05
0.00017101
7.53978e-05
0.000191704
4.61866e-05
3.88649e-05
3.88629e-05
0.0001417
3.88645e-05
3.88627e-05
3.87369e-05
4.93699e-05
3.87403e-05
4.93696e-05
2.4482e-05
2.44822e-05
3.87413e-05
4.93658e-05
3.87451e-05
4.93655e-05
0.000207307
0.000207296
0.000207294
0.000207193
0.000207137
0.000207208
0.000207131
7.53315e-05
4.61582e-05
0.000191683
0.000170961
7.53426e-05
4.61584e-05
0.000191651
2.44793e-05
2.44796e-05
7.53399e-05
0.000191694
4.61677e-05
0.000170983
7.5343e-05
0.000191681
4.6168e-05
3.88621e-05
3.886e-05
0.000141614
3.88603e-05
3.88579e-05
3.87204e-05
4.93703e-05
3.87213e-05
4.93695e-05
2.44817e-05
2.44818e-05
3.87258e-05
4.93662e-05
3.87266e-05
4.93655e-05
0.000207094
0.000207132
0.000207086
0.000207097
0.000207103
0.000207079
0.000207095
7.53137e-05
4.61396e-05
0.000191486
0.000170845
7.52899e-05
4.61443e-05
0.000191498
2.4479e-05
2.44792e-05
7.53127e-05
0.000191504
4.61474e-05
0.000170826
7.52933e-05
0.000191488
4.6151e-05
3.88572e-05
3.88546e-05
0.000141537
3.88551e-05
3.88524e-05
3.87122e-05
4.93697e-05
3.87102e-05
4.93688e-05
2.44814e-05
2.44816e-05
3.87185e-05
4.93657e-05
3.87166e-05
4.93648e-05
0.000207152
0.000207123
0.000207143
0.000207203
0.000207188
0.000207173
0.000207177
7.53278e-05
4.61317e-05
0.00019155
0.000170906
7.52912e-05
4.61391e-05
0.000191574
2.44786e-05
2.44788e-05
7.532e-05
0.000191527
4.61376e-05
0.000170883
7.52847e-05
0.000191557
4.61444e-05
3.88525e-05
3.88496e-05
0.000141564
3.88509e-05
3.8848e-05
3.871e-05
4.93689e-05
3.87061e-05
4.93682e-05
2.44812e-05
2.44815e-05
3.87166e-05
4.9365e-05
3.87129e-05
4.93642e-05
0.000207205
0.000207191
0.000207193
0.000207232
0.000207214
0.0002072
0.000207203
7.53429e-05
4.613e-05
0.000191595
0.000170938
7.53091e-05
4.61386e-05
0.000191608
2.44784e-05
2.44787e-05
7.5335e-05
0.000191584
4.6135e-05
0.000170921
7.53017e-05
0.0001916
4.61431e-05
3.88489e-05
3.88461e-05
0.000141601
3.88478e-05
3.88451e-05
3.87106e-05
4.93687e-05
3.87062e-05
4.93681e-05
2.44812e-05
2.44815e-05
3.8717e-05
4.93647e-05
3.8713e-05
4.9364e-05
0.000207234
0.000207219
0.000207223
0.000207258
0.000207244
0.000207228
0.000207233
7.53461e-05
4.61302e-05
0.00019162
0.00017095
7.53149e-05
4.61388e-05
0.000191633
2.44783e-05
2.44787e-05
7.53409e-05
0.000191609
4.61345e-05
0.000170941
7.53107e-05
0.000191625
4.61428e-05
3.88469e-05
3.88442e-05
0.000141612
3.88468e-05
3.8844e-05
3.87111e-05
4.93687e-05
3.87068e-05
4.93681e-05
2.44812e-05
2.44815e-05
3.87173e-05
4.93646e-05
3.87134e-05
4.9364e-05
0.000207262
0.000207247
0.000207252
0.000207275
0.000207271
0.000207256
0.000207262
7.53449e-05
4.61303e-05
0.000191638
0.000170952
7.53156e-05
4.61389e-05
0.000191645
2.44783e-05
2.44787e-05
7.53399e-05
0.000191633
4.61343e-05
0.000170943
7.53109e-05
0.000191643
4.61427e-05
3.88467e-05
3.88439e-05
0.000141617
3.88467e-05
3.88439e-05
3.87112e-05
4.93687e-05
3.8707e-05
4.93681e-05
2.44812e-05
2.44815e-05
3.87174e-05
4.93646e-05
3.87136e-05
4.93639e-05
0.000207281
0.000207273
0.000207274
0.000207278
0.000207276
0.00020727
0.00020727
7.53448e-05
4.61303e-05
0.00019164
0.000170952
7.53152e-05
4.61389e-05
0.000191646
2.44783e-05
2.44787e-05
7.53396e-05
0.000191633
4.61344e-05
0.000170943
7.53094e-05
0.000191639
4.61428e-05
3.88467e-05
3.8844e-05
0.000141616
3.88468e-05
3.8844e-05
3.87112e-05
4.93687e-05
3.87071e-05
4.93681e-05
2.44812e-05
2.44815e-05
3.87175e-05
4.93646e-05
3.87136e-05
4.93639e-05
0.00020728
0.000207273
0.000207274
0.000207277
0.000207277
0.00020727
0.000207271
7.53447e-05
4.61303e-05
0.00019164
0.000170952
7.53154e-05
4.61389e-05
0.000191645
2.44783e-05
2.44787e-05
7.53392e-05
0.000191636
4.61343e-05
0.000170942
7.53092e-05
0.00019164
4.61427e-05
3.88467e-05
3.8844e-05
0.000141616
3.88468e-05
3.8844e-05
3.87112e-05
4.93687e-05
3.87071e-05
4.93681e-05
2.44812e-05
2.44815e-05
3.87174e-05
4.93646e-05
3.87136e-05
4.93639e-05
0.00020728
0.000207273
0.000207274
0.000207276
0.000207277
0.00020727
0.000207271
7.53443e-05
4.61303e-05
0.00019164
0.000170952
7.53151e-05
4.61389e-05
0.000191645
2.44783e-05
2.44787e-05
7.53391e-05
0.000191636
4.61344e-05
0.000170941
7.53091e-05
0.000191641
4.61428e-05
3.88468e-05
3.8844e-05
0.000141615
3.88468e-05
3.8844e-05
3.87112e-05
4.93687e-05
3.87071e-05
4.93681e-05
2.44812e-05
2.44815e-05
3.87174e-05
4.93646e-05
3.87136e-05
4.93639e-05
0.00020728
0.000207273
0.000207274
0.000207277
0.000207277
0.00020727
0.000207271
7.53448e-05
4.61303e-05
0.000191641
0.000170953
7.53152e-05
4.61389e-05
0.000191645
2.44784e-05
2.44788e-05
7.53381e-05
0.000191636
4.61344e-05
0.000170942
7.53081e-05
0.000191641
4.61428e-05
3.88467e-05
3.8844e-05
0.000141614
3.88468e-05
3.8844e-05
3.87112e-05
4.93687e-05
3.8707e-05
4.93681e-05
2.44812e-05
2.44815e-05
3.87174e-05
4.93646e-05
3.87136e-05
4.93639e-05
0.00020728
0.000207273
0.000207274
0.000207277
0.000207277
0.00020727
0.000207271
7.53444e-05
4.61303e-05
0.00019164
0.000170952
7.53153e-05
4.61389e-05
0.000191643
2.44783e-05
2.44787e-05
7.53377e-05
0.000191636
4.61344e-05
0.000170942
7.53081e-05
0.000191641
4.61427e-05
3.88467e-05
3.8844e-05
0.000141615
3.88468e-05
3.8844e-05
3.87112e-05
4.93687e-05
3.8707e-05
4.93681e-05
2.44812e-05
2.44815e-05
3.87174e-05
4.93646e-05
3.87136e-05
4.93638e-05
0.00020728
0.000207273
0.000207274
0.000207277
0.000207277
0.00020727
0.000207271
7.53448e-05
4.61303e-05
0.000191638
0.000170953
7.53151e-05
4.61388e-05
0.000191643
2.44783e-05
2.44788e-05
7.53375e-05
0.000191637
4.61343e-05
0.000170942
7.53079e-05
0.000191641
4.61427e-05
3.88467e-05
3.8844e-05
0.000141614
3.88468e-05
3.8844e-05
3.87112e-05
4.93687e-05
3.8707e-05
4.93681e-05
2.44812e-05
2.44815e-05
3.87174e-05
4.93646e-05
3.87136e-05
4.9364e-05
0.00020728
0.000207273
0.000207274
0.000207277
0.000207277
0.00020727
0.000207271
7.53445e-05
4.61303e-05
0.000191639
0.000170952
7.53153e-05
4.61389e-05
0.000191644
2.44784e-05
2.44787e-05
7.53368e-05
0.000191635
4.61343e-05
0.000170943
7.53076e-05
0.000191639
4.61426e-05
3.88467e-05
3.8844e-05
0.000141615
3.88468e-05
3.8844e-05
3.87112e-05
4.93687e-05
3.8707e-05
4.93681e-05
2.44812e-05
2.44815e-05
3.87174e-05
4.93647e-05
3.87135e-05
4.93642e-05
0.00020728
0.000207273
0.000207274
0.000207277
0.000207277
0.00020727
0.00020727
7.53446e-05
4.61303e-05
0.00019164
0.000170952
7.53152e-05
4.61389e-05
0.000191645
2.44784e-05
2.44788e-05
7.53377e-05
0.000191635
4.61343e-05
0.000170942
7.53075e-05
0.00019164
4.61427e-05
3.88467e-05
3.8844e-05
0.000141616
3.88468e-05
3.8844e-05
3.87111e-05
4.93687e-05
3.8707e-05
4.93682e-05
2.44812e-05
2.44816e-05
3.87173e-05
4.93648e-05
3.87135e-05
4.93644e-05
0.00020728
0.000207273
0.000207274
0.000207277
0.000207277
0.000207269
0.000207271
7.53451e-05
4.61305e-05
0.00019164
0.000170953
7.53155e-05
4.6139e-05
0.000191645
2.44784e-05
2.44789e-05
7.53378e-05
0.000191636
4.61346e-05
0.000170941
7.53075e-05
0.00019164
4.61428e-05
3.8847e-05
3.88443e-05
0.000141615
3.88472e-05
3.88444e-05
3.87111e-05
4.93688e-05
3.87071e-05
4.93688e-05
2.44813e-05
2.44822e-05
3.87174e-05
4.9365e-05
3.87137e-05
4.9365e-05
0.00020728
0.000207273
0.000207274
0.000207277
0.000207277
0.000207269
0.00020727
7.53463e-05
4.6132e-05
0.000191641
0.000170954
7.53159e-05
4.61397e-05
0.000191645
2.44786e-05
2.44795e-05
7.53381e-05
0.000191636
4.6136e-05
0.000170942
7.53083e-05
0.000191641
4.61435e-05
3.88502e-05
3.88474e-05
0.000141616
3.88506e-05
3.88478e-05
3.87102e-05
4.93691e-05
3.87071e-05
4.93693e-05
2.44816e-05
2.44831e-05
3.87165e-05
4.93653e-05
3.87137e-05
4.93655e-05
0.00020728
0.000207273
0.000207274
0.000207277
0.000207277
0.00020727
0.000207271
7.53418e-05
4.61346e-05
0.000191641
0.000170954
7.53176e-05
4.61411e-05
0.000191645
2.44789e-05
2.44805e-05
7.5334e-05
0.000191637
4.61386e-05
0.000170943
7.53098e-05
0.000191641
4.61449e-05
3.88572e-05
3.88543e-05
0.000141614
3.88568e-05
3.88539e-05
3.87072e-05
4.93693e-05
3.87043e-05
4.93707e-05
2.44815e-05
2.44836e-05
3.87133e-05
4.93655e-05
3.87108e-05
4.93669e-05
0.00020728
0.000207273
0.000207274
0.000207277
0.000207277
0.00020727
0.000207271
7.53481e-05
4.61389e-05
0.000191641
0.000170955
7.53255e-05
4.61437e-05
0.000191646
2.44792e-05
2.44814e-05
7.53401e-05
0.000191637
4.61427e-05
0.000170944
7.53171e-05
0.000191641
4.61472e-05
3.88633e-05
3.88604e-05
0.000141616
3.88575e-05
3.88546e-05
3.87045e-05
4.93706e-05
3.87015e-05
4.9374e-05
2.44802e-05
2.44835e-05
3.87106e-05
4.93669e-05
3.8708e-05
4.93702e-05
0.000207281
0.000207274
0.000207274
0.000207278
0.000207278
0.000207271
0.000207271
7.53515e-05
4.61489e-05
0.000191642
0.000170959
7.53259e-05
4.615e-05
0.000191646
2.44782e-05
2.44815e-05
7.53441e-05
0.000191638
4.61525e-05
0.000170948
7.53181e-05
0.000191642
4.61533e-05
3.88603e-05
3.88574e-05
0.000141618
3.88445e-05
3.88416e-05
3.86995e-05
4.93726e-05
3.86963e-05
4.93769e-05
2.44775e-05
2.44828e-05
3.87057e-05
4.93689e-05
3.87028e-05
4.93734e-05
0.000207281
0.000207274
0.000207274
0.000207278
0.000207279
0.000207272
0.000207272
7.53556e-05
4.61649e-05
0.000191643
0.000170965
7.53317e-05
4.61534e-05
0.000191647
2.44755e-05
2.44809e-05
7.53488e-05
0.000191639
4.61674e-05
0.000170954
7.53247e-05
0.000191643
4.61547e-05
3.88435e-05
3.88406e-05
0.000141621
3.88161e-05
3.88131e-05
3.86925e-05
4.93686e-05
3.86881e-05
4.93744e-05
2.44737e-05
2.44817e-05
3.86989e-05
4.93656e-05
3.86948e-05
4.93714e-05
0.000207282
0.000207275
0.000207275
0.00020728
0.000207281
0.000207274
0.000207274
7.53582e-05
4.61685e-05
0.000191647
0.000170974
7.53372e-05
4.61326e-05
0.000191651
2.44719e-05
2.44799e-05
7.53523e-05
0.000191643
4.61685e-05
0.000170963
7.5331e-05
0.000191647
4.61317e-05
3.88144e-05
3.88113e-05
0.000141625
3.87756e-05
3.87724e-05
3.8682e-05
4.93562e-05
3.86747e-05
4.93654e-05
2.44692e-05
2.448e-05
3.86885e-05
4.93533e-05
3.86817e-05
4.93625e-05
0.000207285
0.000207278
0.000207278
0.000207303
0.000207306
0.0002073
0.0002073
7.53611e-05
4.61547e-05
0.000191654
0.000170993
7.53473e-05
4.60826e-05
0.000191661
2.44675e-05
2.44782e-05
7.53554e-05
0.000191648
4.61532e-05
0.000170984
7.53417e-05
0.000191655
4.60807e-05
3.87757e-05
3.87723e-05
0.000141629
3.87267e-05
3.87232e-05
3.87081e-05
4.93341e-05
3.86594e-05
4.93671e-05
2.44661e-05
2.44869e-05
3.87116e-05
4.93307e-05
3.86655e-05
4.93644e-05
0.000207316
0.00020731
0.000207309
0.00020772
0.000207718
0.000207715
0.000207714
7.55071e-05
4.61302e-05
0.000191722
0.000171264
7.53868e-05
4.60374e-05
0.000191659
2.44641e-05
2.4485e-05
7.55025e-05
0.000191717
4.61285e-05
0.000171256
7.53815e-05
0.000191655
4.60364e-05
3.87345e-05
3.87311e-05
0.000141906
3.86848e-05
3.86826e-05
4.11999e-05
5.25349e-05
3.87954e-05
8.96053e-05
2.6966e-05
3.07287e-05
4.12027e-05
5.25321e-05
3.87981e-05
8.96024e-05
0.000224244
0.000218339
0.000218342
0.000205074
0.00022399
0.000217141
0.000217142
8.0212e-05
4.69485e-05
0.000193961
0.000177
7.73122e-05
5.84923e-05
0.00019755
2.69645e-05
3.07279e-05
8.02067e-05
0.000193959
4.69483e-05
0.000176998
7.73085e-05
0.000197549
5.84873e-05
3.95723e-05
3.95666e-05
0.000150849
3.92966e-05
3.92941e-05
2.44854e-05
2.44833e-05
3.88168e-05
3.88118e-05
4.9369e-05
3.87189e-05
4.93693e-05
4.93709e-05
3.87206e-05
4.61563e-05
0.000191754
7.54355e-05
0.000171051
4.61566e-05
0.000191755
4.61454e-05
7.54372e-05
2.44835e-05
2.44846e-05
0.000141565
3.88235e-05
3.88191e-05
3.8812e-05
3.88064e-05
2.44839e-05
2.44848e-05
4.93656e-05
3.87234e-05
4.61499e-05
0.000191751
7.54365e-05
4.9362e-05
3.87234e-05
0.000191744
4.61452e-05
7.54332e-05
7.54186e-05
0.00017108
4.61524e-05
0.00019175
4.61408e-05
0.000191755
7.54335e-05
3.8717e-05
4.93675e-05
4.93691e-05
3.87181e-05
7.54092e-05
0.000171053
0.000191751
4.6155e-05
0.000191752
4.6144e-05
7.5431e-05
3.87167e-05
4.93653e-05
4.93668e-05
3.87179e-05
2.44817e-05
3.8806e-05
3.88179e-05
2.44843e-05
0.000191752
4.61549e-05
7.54363e-05
0.000171074
0.000191755
4.61528e-05
4.61417e-05
7.54333e-05
4.93655e-05
3.87184e-05
4.9365e-05
4.93665e-05
3.87221e-05
0.000141562
3.88215e-05
3.88185e-05
3.88099e-05
3.88072e-05
2.44833e-05
2.44842e-05
2.44822e-05
2.44832e-05
2.4485e-05
2.44839e-05
2.4483e-05
2.44819e-05
3.88151e-05
3.88101e-05
0.000141734
3.88261e-05
3.88212e-05
2.44828e-05
2.44836e-05
2.44809e-05
2.44816e-05
0.00014155
3.88341e-05
3.88293e-05
3.88224e-05
3.88175e-05
3.87214e-05
4.93698e-05
3.87156e-05
4.93685e-05
7.5444e-05
4.61509e-05
0.000191754
0.000171043
7.54249e-05
4.61618e-05
0.000191753
7.54466e-05
4.61508e-05
0.000191755
0.00017106
7.54262e-05
4.61614e-05
0.000191755
3.87171e-05
4.93672e-05
4.93685e-05
3.87259e-05
3.87186e-05
4.93678e-05
4.9369e-05
3.87272e-05
7.54306e-05
0.000171044
4.61669e-05
0.000191748
4.61564e-05
0.000191751
7.54465e-05
7.5434e-05
0.000171059
4.61661e-05
0.00019175
4.61557e-05
0.000191752
7.54408e-05
3.882e-05
3.88158e-05
0.000141761
3.88275e-05
3.88238e-05
2.44836e-05
2.44828e-05
2.44816e-05
2.44822e-05
0.00014158
3.88328e-05
3.88294e-05
3.88243e-05
3.88208e-05
2.4482e-05
2.44827e-05
7.54428e-05
4.61438e-05
0.000191751
0.000171062
7.54269e-05
4.61548e-05
0.00019175
3.87246e-05
4.93625e-05
3.87186e-05
4.93608e-05
7.54448e-05
0.000191744
4.61392e-05
0.000171037
7.54239e-05
0.000191744
4.61503e-05
3.87229e-05
4.93635e-05
4.93649e-05
3.87317e-05
7.5428e-05
0.00017106
4.61599e-05
0.000191744
4.61489e-05
0.000191746
7.54369e-05
3.87224e-05
4.936e-05
4.93614e-05
3.87312e-05
7.54312e-05
0.000171039
0.000191738
4.61555e-05
0.00019174
4.61445e-05
7.54375e-05
3.87216e-05
4.93681e-05
3.87142e-05
4.93666e-05
7.54361e-05
0.000191758
4.61492e-05
0.000171061
7.54191e-05
0.000191757
4.61598e-05
3.87215e-05
4.93658e-05
3.8714e-05
4.93644e-05
7.54236e-05
0.000171084
4.61616e-05
0.000191747
4.61509e-05
0.000191752
7.54451e-05
3.87188e-05
4.9366e-05
4.93672e-05
3.87273e-05
7.54247e-05
0.00017106
0.000191756
4.61646e-05
0.000191758
4.61541e-05
7.54356e-05
3.87187e-05
4.93638e-05
4.9365e-05
3.87269e-05
3.88039e-05
3.88162e-05
0.000141737
3.88117e-05
3.88266e-05
2.44839e-05
2.44828e-05
2.44792e-05
2.44801e-05
0.000141555
3.88164e-05
3.88342e-05
3.8808e-05
3.88229e-05
2.44817e-05
2.44825e-05
7.54429e-05
0.000191755
4.6147e-05
0.000171082
7.54229e-05
0.000191756
4.61576e-05
3.87197e-05
4.9366e-05
3.87133e-05
4.93644e-05
3.87232e-05
4.93655e-05
3.87173e-05
4.93641e-05
7.54276e-05
0.000171078
0.000191759
4.6165e-05
0.000191755
4.61542e-05
7.5443e-05
7.54303e-05
0.000171081
0.000191751
4.61623e-05
0.000191754
4.61518e-05
7.54373e-05
3.87169e-05
4.93637e-05
4.9365e-05
3.87258e-05
3.87211e-05
4.93635e-05
4.93647e-05
3.873e-05
2.44828e-05
2.4482e-05
2.44818e-05
2.44809e-05
0.000141574
3.88345e-05
3.88316e-05
3.88226e-05
3.88196e-05
2.44812e-05
2.44818e-05
2.44802e-05
2.44808e-05
2.44828e-05
2.44823e-05
2.44809e-05
2.44803e-05
3.88306e-05
3.8826e-05
0.000141729
3.88416e-05
3.88342e-05
2.44822e-05
2.44823e-05
2.44802e-05
2.44802e-05
0.000141548
3.88487e-05
3.8839e-05
3.88379e-05
3.8831e-05
3.87328e-05
4.93685e-05
3.87246e-05
4.93674e-05
7.54469e-05
4.61614e-05
0.000191752
0.000171044
7.54342e-05
4.61719e-05
0.000191751
7.54421e-05
4.61603e-05
0.000191754
0.000171059
7.54218e-05
4.6171e-05
0.000191754
3.8729e-05
4.93665e-05
4.93673e-05
3.87371e-05
3.87301e-05
4.93674e-05
4.93681e-05
3.87381e-05
7.54313e-05
0.000171041
4.61767e-05
0.000191746
4.61665e-05
0.000191748
7.54401e-05
7.54304e-05
0.000171057
4.61758e-05
0.00019175
4.61653e-05
0.00019175
7.54402e-05
3.88298e-05
3.88264e-05
0.000141765
3.88384e-05
3.8835e-05
2.4482e-05
2.44817e-05
2.44812e-05
2.44812e-05
0.000141583
3.88445e-05
3.88406e-05
3.88354e-05
3.88319e-05
2.44816e-05
2.44817e-05
7.54397e-05
4.6154e-05
0.000191749
0.000171063
7.54195e-05
4.61649e-05
0.000191748
3.87372e-05
4.93606e-05
3.87291e-05
4.93594e-05
7.54387e-05
0.000191742
4.61496e-05
0.000171036
7.54191e-05
0.000191742
4.61606e-05
3.87352e-05
4.93628e-05
4.93636e-05
3.87429e-05
7.54277e-05
0.000171062
4.61694e-05
0.000191749
4.61589e-05
0.000191749
7.54367e-05
3.87349e-05
4.93592e-05
4.93601e-05
3.87426e-05
7.54259e-05
0.000171032
0.000191742
4.61653e-05
0.000191744
4.61547e-05
7.54344e-05
3.87324e-05
4.93667e-05
3.87245e-05
4.93656e-05
7.54359e-05
0.000191747
4.61589e-05
0.00017106
7.54178e-05
0.000191743
4.61695e-05
3.87318e-05
4.93644e-05
3.8724e-05
4.93634e-05
7.54349e-05
0.000171077
4.61708e-05
0.000191742
4.61603e-05
0.000191746
7.54449e-05
3.87295e-05
4.93656e-05
4.93663e-05
3.87372e-05
7.54238e-05
0.000171057
0.000191734
4.61742e-05
0.000191734
4.61639e-05
7.54318e-05
3.87288e-05
4.93634e-05
4.93641e-05
3.87365e-05
3.88131e-05
3.88308e-05
0.000141732
3.88221e-05
3.88415e-05
2.44817e-05
2.44812e-05
2.44784e-05
2.4479e-05
0.00014155
3.88286e-05
3.88486e-05
3.88189e-05
3.88378e-05
2.44811e-05
2.44812e-05
7.54403e-05
0.000191753
4.61566e-05
0.00017108
7.54193e-05
0.000191752
4.61673e-05
3.87315e-05
4.93643e-05
3.87231e-05
4.93631e-05
3.8736e-05
4.93642e-05
3.87279e-05
4.93632e-05
7.54275e-05
0.000171055
0.00019174
4.61747e-05
0.000191737
4.61643e-05
7.54437e-05
7.54296e-05
0.000171077
0.000191752
4.61722e-05
0.000191753
4.61617e-05
7.54426e-05
3.87287e-05
4.93629e-05
4.93638e-05
3.87371e-05
3.87337e-05
4.93631e-05
4.93639e-05
3.87415e-05
2.44811e-05
2.4481e-05
2.44802e-05
2.44799e-05
0.000141571
3.88452e-05
3.88425e-05
3.88366e-05
3.88338e-05
2.44809e-05
2.44809e-05
2.44799e-05
2.44799e-05
2.44821e-05
2.44822e-05
2.44803e-05
2.44802e-05
3.88452e-05
3.88357e-05
0.000141733
3.88525e-05
3.88436e-05
2.44823e-05
2.44823e-05
2.44802e-05
2.44802e-05
0.000141552
3.88564e-05
3.88479e-05
3.88491e-05
3.88402e-05
3.87425e-05
4.93682e-05
3.87352e-05
4.93676e-05
7.54337e-05
4.61711e-05
0.00019175
0.000171045
7.54214e-05
4.61811e-05
0.000191751
7.54341e-05
4.617e-05
0.000191753
0.000171057
7.54214e-05
4.61802e-05
0.000191754