/*--------------------------------*- C++ -*----------------------------------*\
| =========                 |                                                 |
| \\      /  F ield         | OpenFOAM: The Open Source CFD Toolbox           |
|  \\    /   O peration     | Version:  v1912                                 |
|   \\  /    A nd           | Website:  www.openfoam.com                      |
|    \\/     M anipulation  |                                                 |
\*---------------------------------------------------------------------------*/
FoamFile
{
    version     2.0;
    format      ascii;
    class       volScalarField;
    location    "40";
    object      p;
}
// * * * * * * * * * * * * * * * * * * * * * * * * * * * * * * * * * * * * * //

dimensions      [0 2 -2 0 0 0 0];


internalField   nonuniform List<scalar> 
57062
(
0.00115443
0.00115438
0.00115438
0.00115668
0.00111461
0.00111457
0.00111457
0.00111687
0.00107481
0.00107477
0.00107476
0.00107706
0.001035
0.00103496
0.00103496
0.00103726
0.0009952
0.000995157
0.000995157
0.000997453
0.000955392
0.00095535
0.00095535
0.000957647
0.000915574
0.00091553
0.000915531
0.000917827
0.000875749
0.000875706
0.000875706
0.000878003
0.000835929
0.000835886
0.000835887
0.000838183
0.000796115
0.000796072
0.000796072
0.000798369
0.000756302
0.000756259
0.000756259
0.000758556
0.000716488
0.000716445
0.000716445
0.000718742
0.000676674
0.000676632
0.000676632
0.000678928
0.00063686
0.000636817
0.000636817
0.000639114
0.000597046
0.000597003
0.000597003
0.0005993
0.000557232
0.00055719
0.00055719
0.000559486
0.000517419
0.000517376
0.000517376
0.000519673
0.000477606
0.000477563
0.000477563
0.00047986
0.000437793
0.000437751
0.000437751
0.000440047
0.000397981
0.000397938
0.000397938
0.000400235
0.000358168
0.000358126
0.000358126
0.000360422
0.000318353
0.00031831
0.00031831
0.000320604
0.000278543
0.000278502
0.000278502
0.000280797
0.000238725
0.000238682
0.000238682
0.000240973
0.000198906
0.000198865
0.000198865
0.000201155
0.00015908
0.00015904
0.00015904
0.000161322
0.000119243
0.000119207
0.000119206
0.000121478
7.93929e-05
7.93533e-05
7.93517e-05
8.16013e-05
4.00025e-05
3.95734e-05
3.95702e-05
4.1774e-05
6.9971e-06
6.52095e-06
6.51969e-06
5.76824e-06
0.00116205
0.00116434
0.00116433
0.00116205
0.00116433
0.00116433
0.00116433
0.00116433
0.00116205
0.00116433
0.00116433
0.00116205
0.00115668
0.00112224
0.00115438
0.00115438
0.00112452
0.00112452
0.00115668
0.00112224
0.00115438
0.00115438
0.00112452
0.00112452
0.00115438
0.00112452
0.00112452
0.00115668
0.00112224
0.00115438
0.00112452
0.00112452
0.00112224
0.00111687
0.00108243
0.00111457
0.00111457
0.00108472
0.00108472
0.00111687
0.00108243
0.00111457
0.00111457
0.00108472
0.00108472
0.00111457
0.00108472
0.00108472
0.00111687
0.00108243
0.00111457
0.00108472
0.00108472
0.00108243
0.00107706
0.00104263
0.00107476
0.00107477
0.00104491
0.00104491
0.00107706
0.00104263
0.00107476
0.00107476
0.00104491
0.00104491
0.00107477
0.00104491
0.00104491
0.00107706
0.00104263
0.00107476
0.00104491
0.00104491
0.00104263
0.00103726
0.00100282
0.00103496
0.00103496
0.00100511
0.00100511
0.00103726
0.00100282
0.00103496
0.00103496
0.00100511
0.00100511
0.00103496
0.00100511
0.00100511
0.00103726
0.00100282
0.00103496
0.00100511
0.00100511
0.00100282
0.000997453
0.000963017
0.000995157
0.000995157
0.000965302
0.000965302
0.000997453
0.000963018
0.000995157
0.000995157
0.000965302
0.000965302
0.000995157
0.000965302
0.000965303
0.000997453
0.000963018
0.000995157
0.000965303
0.000965303
0.000963018
0.000957646
0.000923202
0.000955349
0.000955349
0.000925487
0.000925486
0.000957646
0.000923201
0.000955349
0.00095535
0.000925487
0.000925487
0.00095535
0.000925486
0.000925487
0.000957646
0.000923202
0.00095535
0.000925487
0.000925487
0.0009232
0.000917828
0.000883376
0.000915531
0.000915531
0.000885662
0.000885661
0.000917827
0.000883376
0.000915531
0.000915531
0.000885662
0.000885662
0.000915531
0.000885661
0.000885662
0.000917828
0.000883376
0.000915531
0.000885662
0.000885661
0.000883375
0.000878003
0.000843556
0.000875706
0.000875706
0.000845841
0.000845841
0.000878002
0.000843555
0.000875706
0.000875706
0.000845841
0.000845841
0.000875706
0.000845841
0.000845841
0.000878003
0.000843555
0.000875706
0.000845841
0.000845841
0.000843555
0.000838183
0.00080374
0.000835887
0.000835886
0.000806025
0.000806025
0.000838183
0.000803741
0.000835887
0.000835887
0.000806025
0.000806025
0.000835887
0.000806026
0.000806026
0.000838183
0.00080374
0.000835886
0.000806025
0.000806026
0.00080374
0.000798368
0.000763927
0.000796072
0.000796072
0.000766213
0.000766212
0.000798369
0.000763928
0.000796072
0.000796072
0.000766212
0.000766212
0.000796073
0.000766213
0.000766213
0.000798368
0.000763927
0.000796072
0.000766212
0.000766213
0.000763927
0.000758556
0.000724114
0.000756259
0.000756259
0.000726399
0.000726399
0.000758556
0.000724114
0.000756259
0.000756259
0.000726399
0.000726399
0.000756259
0.000726399
0.000726399
0.000758556
0.000724114
0.000756259
0.000726399
0.000726399
0.000724114
0.000718742
0.0006843
0.000716445
0.000716445
0.000686585
0.000686585
0.000718742
0.0006843
0.000716445
0.000716445
0.000686585
0.000686585
0.000716446
0.000686585
0.000686585
0.000718742
0.0006843
0.000716445
0.000686585
0.000686585
0.0006843
0.000678928
0.000644486
0.000676632
0.000676631
0.000646771
0.000646771
0.000678928
0.000644486
0.000676631
0.000676632
0.000646771
0.000646771
0.000676632
0.000646771
0.000646771
0.000678928
0.000644486
0.000676631
0.000646771
0.000646771
0.000644486
0.000639114
0.000604672
0.000636818
0.000636817
0.000606957
0.000606957
0.000639114
0.000604672
0.000636817
0.000636818
0.000606957
0.000606957
0.000636818
0.000606957
0.000606957
0.000639114
0.000604672
0.000636817
0.000606957
0.000606957
0.000604672
0.0005993
0.000564858
0.000597004
0.000597003
0.000567143
0.000567143
0.0005993
0.000564858
0.000597003
0.000597003
0.000567143
0.000567143
0.000597004
0.000567143
0.000567143
0.0005993
0.000564858
0.000597003
0.000567143
0.000567143
0.000564858
0.000559486
0.000525044
0.00055719
0.00055719
0.00052733
0.000527329
0.000559486
0.000525045
0.000557189
0.00055719
0.000527329
0.00052733
0.00055719
0.00052733
0.00052733
0.000559486
0.000525044
0.000557189
0.00052733
0.000527329
0.000525044
0.000519673
0.000485231
0.000517376
0.000517376
0.000487517
0.000487516
0.000519673
0.000485232
0.000517376
0.000517376
0.000487516
0.000487517
0.000517376
0.000487517
0.000487517
0.000519673
0.000485231
0.000517376
0.000487517
0.000487516
0.000485231
0.00047986
0.000445419
0.000477563
0.000477563
0.000447704
0.000447704
0.00047986
0.000445419
0.000477563
0.000477563
0.000447704
0.000447704
0.000477564
0.000447704
0.000447704
0.00047986
0.000445419
0.000477563
0.000447704
0.000447704
0.000445418
0.000440047
0.000405606
0.000437751
0.00043775
0.000407891
0.000407891
0.000440047
0.000405606
0.00043775
0.000437751
0.000407891
0.000407891
0.000437751
0.000407891
0.000407891
0.000440047
0.000405606
0.00043775
0.000407891
0.000407891
0.000405606
0.000400235
0.000365793
0.000397938
0.000397938
0.000368078
0.000368078
0.000400234
0.000365793
0.000397938
0.000397938
0.000368078
0.000368078
0.000397938
0.000368078
0.000368079
0.000400235
0.000365793
0.000397938
0.000368078
0.000368078
0.000365793
0.000360422
0.00032598
0.000358126
0.000358126
0.000328263
0.000328263
0.000360421
0.00032598
0.000358126
0.000358126
0.000328263
0.000328263
0.000358126
0.000328263
0.000328264
0.000360422
0.00032598
0.000358126
0.000328263
0.000328263
0.00032598
0.000320604
0.000286168
0.00031831
0.000318309
0.000288453
0.000288453
0.000320603
0.000286168
0.000318309
0.00031831
0.000288453
0.000288453
0.00031831
0.000288453
0.000288453
0.000320604
0.000286168
0.000318309
0.000288453
0.000288453
0.000286168
0.000280797
0.000246356
0.000278502
0.000278502
0.000248639
0.000248639
0.000280797
0.000246357
0.000278501
0.000278502
0.000248639
0.000248639
0.000278502
0.000248639
0.000248639
0.000280797
0.000246356
0.000278502
0.000248639
0.000248639
0.000246356
0.000240973
0.000206539
0.000238682
0.000238681
0.00020882
0.00020882
0.000240973
0.000206539
0.000238682
0.000238682
0.00020882
0.00020882
0.000238682
0.00020882
0.00020882
0.000240973
0.000206538
0.000238682
0.00020882
0.00020882
0.000206539
0.000201155
0.00016672
0.000198865
0.000198865
0.000168998
0.000168998
0.000201155
0.00016672
0.000198865
0.000198865
0.000168998
0.000168998
0.000198866
0.000168998
0.000168998
0.000201155
0.00016672
0.000198865
0.000168998
0.000168998
0.00016672
0.000161323
0.000126895
0.00015904
0.00015904
0.000129171
0.000129171
0.000161322
0.000126895
0.00015904
0.00015904
0.000129171
0.000129171
0.00015904
0.000129171
0.000129171
0.000161323
0.000126895
0.00015904
0.000129171
0.000129171
0.000126895
0.000121478
8.70565e-05
0.000119207
0.000119207
8.93268e-05
8.93273e-05
0.000121478
8.70575e-05
0.000119206
0.000119207
8.93264e-05
8.93259e-05
0.000119207
8.9327e-05
8.93264e-05
0.000121478
8.70556e-05
0.000119207
8.93259e-05
8.93259e-05
8.70559e-05
8.16025e-05
4.72331e-05
7.93531e-05
7.93534e-05
4.94858e-05
4.94864e-05
8.16025e-05
4.72341e-05
7.93524e-05
7.93515e-05
4.94834e-05
4.9483e-05
7.93524e-05
4.94846e-05
4.94827e-05
8.16019e-05
4.72307e-05
7.93518e-05
4.94822e-05
4.9481e-05
4.72299e-05
4.17783e-05
9.77373e-06
3.95759e-05
3.95763e-05
1.21056e-05
1.21051e-05
4.17783e-05
9.77322e-06
3.95731e-05
3.95721e-05
1.21046e-05
1.21017e-05
3.95714e-05
1.21024e-05
1.20976e-05
4.17749e-05
9.77003e-06
3.95692e-05
1.21004e-05
1.20993e-05
9.7671e-06
5.77351e-06
6.52302e-06
6.52272e-06
5.7737e-06
6.52132e-06
6.51987e-06
6.99679e-06
6.9947e-06
6.99348e-06
6.51648e-06
5.77146e-06
6.51734e-06
0.00116438
0.00116438
0.00116439
0.00116438
0.00114197
0.00115687
0.00115688
0.00114197
0.00115687
0.00114197
0.00114197
0.00115687
0.00115688
0.00114197
0.00115443
0.00115443
0.00115443
0.00112456
0.00112456
0.00112456
0.00112456
0.00114201
0.00115684
0.00115439
0.00114443
0.00115684
0.001142
0.00114444
0.00115687
0.00114197
0.00114201
0.00115439
0.00115684
0.00114443
0.00115684
0.00114444
0.001142
0.00115688
0.00115688
0.00114214
0.00114197
0.00114197
0.00110216
0.00111706
0.00111706
0.00110216
0.00111706
0.00110216
0.00110216
0.00111706
0.00111706
0.00110216
0.00111461
0.00111461
0.00111461
0.00108476
0.00108476
0.00108476
0.00108476
0.0011022
0.00111703
0.00111458
0.00110462
0.00111703
0.00110219
0.00110463
0.00111706
0.00110216
0.0011022
0.00111458
0.00111703
0.00110462
0.00111703
0.00110463
0.00110219
0.00111706
0.00111706
0.00110233
0.00110216
0.00110216
0.00106236
0.00107725
0.00107726
0.00106236
0.00107726
0.00106236
0.00106236
0.00107725
0.00107726
0.00106236
0.00107481
0.00107481
0.00107481
0.00104495
0.00104495
0.00104495
0.00104495
0.0010624
0.00107723
0.00107477
0.00106481
0.00107722
0.00106239
0.00106482
0.00107726
0.00106236
0.0010624
0.00107477
0.00107723
0.00106481
0.00107722
0.00106482
0.00106239
0.00107726
0.00107726
0.00106253
0.00106236
0.00106236
0.00102256
0.00103745
0.00103746
0.00102256
0.00103745
0.00102256
0.00102256
0.00103745
0.00103746
0.00102256
0.001035
0.001035
0.001035
0.00100515
0.00100515
0.00100515
0.00100515
0.0010226
0.00103742
0.00103497
0.00102501
0.00103742
0.00102259
0.00102502
0.00103745
0.00102256
0.0010226
0.00103497
0.00103742
0.00102501
0.00103742
0.00102502
0.00102258
0.00103746
0.00103746
0.00102273
0.00102255
0.00102255
0.000982754
0.000997648
0.000997651
0.000982754
0.00099765
0.000982753
0.000982753
0.000997648
0.000997651
0.000982754
0.0009952
0.0009952
0.000995199
0.000965344
0.000965344
0.000965345
0.000965345
0.000982794
0.000997621
0.000995167
0.000985206
0.000997614
0.000982781
0.000985216
0.000997649
0.000982752
0.000982795
0.000995167
0.00099762
0.000985206
0.000997614
0.000985216
0.000982781
0.000997654
0.000997653
0.000982922
0.00098275
0.00098275
0.000942947
0.000957841
0.000957844
0.000942947
0.000957844
0.000942945
0.000942947
0.000957841
0.000957844
0.000942947
0.000955392
0.000955392
0.000955392
0.00092553
0.000925529
0.00092553
0.000925529
0.000942986
0.000957815
0.000955359
0.000945396
0.000957808
0.000942973
0.000945406
0.000957844
0.000942945
0.000942985
0.00095536
0.000957815
0.000945396
0.000957809
0.000945406
0.000942973
0.000957849
0.000957849
0.000943112
0.000942942
0.000942943
0.000903122
0.000918025
0.00091803
0.000903123
0.000918025
0.00090312
0.000903122
0.000918025
0.000918031
0.000903123
0.000915573
0.000915574
0.000915572
0.000885704
0.000885704
0.000885704
0.000885704
0.000903159
0.000917996
0.00091554
0.000905574
0.000917988
0.000903147
0.000905583
0.000918027
0.000903121
0.00090316
0.000915541
0.000917998
0.000905575
0.00091799
0.000905584
0.000903149
0.000918029
0.00091803
0.000903288
0.000903116
0.000903117
0.000863298
0.000878198
0.000878201
0.000863298
0.000878199
0.000863296
0.000863298
0.000878198
0.000878201
0.000863299
0.000875749
0.000875749
0.000875748
0.000845884
0.000845883
0.000845884
0.000845883
0.000863337
0.000878169
0.000875715
0.000865751
0.000878163
0.000863323
0.00086576
0.0008782
0.000863297
0.000863337
0.000875716
0.00087817
0.000865751
0.000878163
0.00086576
0.000863324
0.000878203
0.000878203
0.000863465
0.000863292
0.000863293
0.000823479
0.000838377
0.000838381
0.000823479
0.000838378
0.000823478
0.000823479
0.000838377
0.000838381
0.000823479
0.000835929
0.000835929
0.000835929
0.000806068
0.000806068
0.000806068
0.000806068
0.000823519
0.000838349
0.000835896
0.000825933
0.000838343
0.000823506
0.000825942
0.000838379
0.000823477
0.000823519
0.000835896
0.000838349
0.000825932
0.000838343
0.000825942
0.000823505
0.000838382
0.000838382
0.000823647
0.000823474
0.000823474
0.000783666
0.000798562
0.000798566
0.000783667
0.000798565
0.000783665
0.000783666
0.000798562
0.000798566
0.000783667
0.000796115
0.000796115
0.000796115
0.000766255
0.000766255
0.000766255
0.000766255
0.000783706
0.000798536
0.000796082
0.000786119
0.00079853
0.000783693
0.000786129
0.000798564
0.000783665
0.000783706
0.000796082
0.000798535
0.000786119
0.000798529
0.000786129
0.000783692
0.000798569
0.000798569
0.000783834
0.000783662
0.000783662
0.000743853
0.00075875
0.000758754
0.000743853
0.000758752
0.000743852
0.000743853
0.00075875
0.000758754
0.000743854
0.000756302
0.000756302
0.000756301
0.000726441
0.000726441
0.000726442
0.000726441
0.000743893
0.000758722
0.000756269
0.000746306
0.000758716
0.00074388
0.000746316
0.000758752
0.000743852
0.000743893
0.000756269
0.000758722
0.000746306
0.000758716
0.000746315
0.000743879
0.000758755
0.000758756
0.000744021
0.000743848
0.000743849
0.000704039
0.000718936
0.00071894
0.00070404
0.000718938
0.000704038
0.000704039
0.000718936
0.00071894
0.00070404
0.000716488
0.000716488
0.000716488
0.000686628
0.000686628
0.000686628
0.000686627
0.000704079
0.000718909
0.000716455
0.000706492
0.000718903
0.000704066
0.000706502
0.000718938
0.000704038
0.000704079
0.000716455
0.000718909
0.000706492
0.000718902
0.000706502
0.000704065
0.000718942
0.000718942
0.000704207
0.000704034
0.000704034
0.000664225
0.000679122
0.000679126
0.000664226
0.000679124
0.000664224
0.000664225
0.000679122
0.000679126
0.000664226
0.000676674
0.000676674
0.000676674
0.000646814
0.000646814
0.000646814
0.000646813
0.000664265
0.000679095
0.000676641
0.000666678
0.000679089
0.000664252
0.000666688
0.000679124
0.000664224
0.000664265
0.000676641
0.000679095
0.000666678
0.000679089
0.000666688
0.000664252
0.000679128
0.000679128
0.000664393
0.000664221
0.000664221
0.000624411
0.000639308
0.000639312
0.000624412
0.00063931
0.00062441
0.000624411
0.000639308
0.000639312
0.000624412
0.00063686
0.00063686
0.00063686
0.000607
0.000607
0.000607
0.000606999
0.000624451
0.000639281
0.000636827
0.000626864
0.000639275
0.000624438
0.000626874
0.00063931
0.00062441
0.000624451
0.000636827
0.000639281
0.000626864
0.000639274
0.000626874
0.000624438
0.000639314
0.000639314
0.000624579
0.000624407
0.000624407
0.000584597
0.000599494
0.000599498
0.000584598
0.000599496
0.000584596
0.000584597
0.000599494
0.000599498
0.000584598
0.000597046
0.000597046
0.000597046
0.000567186
0.000567186
0.000567186
0.000567185
0.000584637
0.000599467
0.000597013
0.00058705
0.000599461
0.000584624
0.00058706
0.000599496
0.000584596
0.000584637
0.000597013
0.000599467
0.00058705
0.000599461
0.00058706
0.000584623
0.0005995
0.0005995
0.000584765
0.000584592
0.000584593
0.000544783
0.00055968
0.000559684
0.000544784
0.000559682
0.000544782
0.000544783
0.00055968
0.000559684
0.000544784
0.000557232
0.000557232
0.000557232
0.000527372
0.000527372
0.000527372
0.000527372
0.000544823
0.000559653
0.000557199
0.000547236
0.000559647
0.00054481
0.000547246
0.000559682
0.000544782
0.000544823
0.000557199
0.000559653
0.000547236
0.000559646
0.000547246
0.00054481
0.000559686
0.000559686
0.000544951
0.000544779
0.000544779
0.000504971
0.000519867
0.000519871
0.000504971
0.000519869
0.000504969
0.00050497
0.000519867
0.000519871
0.000504971
0.000517419
0.000517419
0.000517419
0.000487559
0.000487559
0.000487559
0.000487559
0.00050501
0.000519839
0.000517386
0.000507423
0.000519833
0.000504997
0.000507433
0.000519869
0.000504969
0.00050501
0.000517386
0.00051984
0.000507423
0.000519833
0.000507433
0.000504997
0.000519873
0.000519873
0.000505138
0.000504966
0.000504966
0.000465158
0.000480054
0.000480058
0.000465158
0.000480056
0.000465156
0.000465157
0.000480054
0.000480058
0.000465158
0.000477606
0.000477606
0.000477606
0.000447746
0.000447746
0.000447746
0.000447746
0.000465197
0.000480027
0.000477573
0.00046761
0.00048002
0.000465184
0.00046762
0.000480056
0.000465156
0.000465197
0.000477573
0.000480027
0.00046761
0.00048002
0.00046762
0.000465184
0.00048006
0.00048006
0.000465325
0.000465153
0.000465153
0.000425345
0.000440241
0.000440245
0.000425345
0.000440243
0.000425343
0.000425345
0.000440241
0.000440245
0.000425345
0.000437793
0.000437793
0.000437793
0.000407934
0.000407934
0.000407934
0.000407934
0.000425384
0.000440214
0.00043776
0.000427797
0.000440208
0.000425371
0.000427807
0.000440243
0.000425343
0.000425384
0.00043776
0.000440214
0.000427797
0.000440207
0.000427807
0.000425371
0.000440247
0.000440247
0.000425512
0.00042534
0.00042534
0.000385533
0.000400429
0.000400432
0.000385532
0.00040043
0.00038553
0.000385532
0.000400429
0.000400432
0.000385532
0.000397981
0.000397981
0.00039798
0.000368121
0.000368121
0.000368121
0.00036812
0.000385572
0.000400401
0.000397948
0.000387985
0.000400395
0.000385559
0.000387995
0.000400431
0.00038553
0.000385572
0.000397948
0.000400401
0.000387985
0.000400395
0.000387994
0.000385558
0.000400435
0.000400435
0.0003857
0.000385527
0.000385527
0.00034572
0.000360616
0.000360619
0.000345719
0.000360619
0.000345715
0.00034572
0.000360616
0.000360619
0.000345719
0.000358167
0.000358168
0.000358167
0.000328306
0.000328306
0.000328306
0.000328306
0.000345759
0.000360587
0.000358135
0.000348172
0.000360581
0.000345747
0.000348181
0.000360619
0.000345714
0.000345759
0.000358135
0.000360588
0.000348171
0.000360581
0.000348181
0.000345746
0.000360622
0.000360622
0.000345887
0.000345713
0.000345713
0.000305911
0.000320796
0.000320801
0.00030591
0.000320801
0.000305909
0.00030591
0.000320796
0.000320801
0.000305911
0.000318353
0.000318353
0.000318353
0.000288495
0.000288495
0.000288495
0.000288495
0.000305947
0.000320769
0.000318319
0.000308356
0.000320765
0.000305936
0.000308366
0.000320802
0.000305909
0.000305947
0.000318319
0.000320769
0.000308356
0.000320765
0.000308366
0.000305936
0.000320802
0.000320802
0.000306074
0.00030591
0.00030591
0.000266083
0.000280993
0.000280996
0.000266086
0.000280991
0.000266084
0.000266083
0.000280994
0.000280996
0.000266086
0.000278543
0.000278543
0.000278543
0.000248679
0.000248678
0.000248679
0.000248678
0.000266127
0.000280964
0.000278512
0.00026855
0.000280962
0.000266119
0.000268558
0.000280991
0.000266084
0.000266127
0.000278512
0.000280964
0.00026855
0.000280962
0.000268558
0.000266119
0.000280992
0.000280992
0.000266264
0.000266087
0.000266087
0.000226283
0.000241182
0.000241173
0.000226266
0.000241192
0.000226253
0.000226283
0.000241182
0.000241174
0.000226266
0.000238725
0.000238725
0.000238725
0.000208858
0.000208858
0.000208858
0.000208858
0.000226318
0.00024114
0.00023869
0.000228727
0.000241134
0.000226313
0.000228735
0.000241192
0.000226252
0.000226318
0.00023869
0.00024114
0.000228727
0.000241134
0.000228735
0.000226313
0.000241181
0.000241182
0.000226447
0.000226273
0.000226273
0.000186457
0.000201356
0.000201361
0.000186449
0.000201377
0.00018643
0.000186456
0.000201356
0.00020136
0.000186448
0.000198905
0.000198906
0.000198905
0.000169031
0.000169031
0.000169031
0.000169031
0.000186495
0.000201312
0.000198875
0.000188911
0.000201323
0.000186496
0.000188915
0.000201377
0.00018643
0.000186495
0.000198875
0.000201312
0.000188911
0.000201323
0.000188915
0.000186496
0.000201347
0.000201347
0.000186629
0.000186462
0.000186462
0.000146631
0.000161535
0.000161535
0.000146622
0.000161558
0.000146599
0.000146631
0.000161534
0.000161535
0.000146622
0.00015908
0.00015908
0.00015908
0.000129192
0.000129193
0.000129192
0.000129193
0.000146668
0.000161479
0.00015905
0.000149087
0.000161496
0.000146679
0.000149089
0.000161558
0.000146599
0.000146668
0.00015905
0.000161479
0.000149087
0.000161496
0.000149089
0.000146679
0.000161522
0.000161522
0.000146808
0.000146635
0.000146635
0.000106788
0.000121697
0.0001217
0.000106784
0.000121732
0.000106744
0.000106788
0.000121697
0.0001217
0.000106783
0.000119244
0.000119243
0.000119243
8.93305e-05
8.93296e-05
8.93295e-05
8.93294e-05
0.000106825
0.000121628
0.000119218
0.000109251
0.000121662
0.000106856
0.000109247
0.000121731
0.000106743
0.000106824
0.000119217
0.000121628
0.000109251
0.000121662
0.000109247
0.000106855
0.000121682
0.000121683
0.000106977
0.000106796
0.000106796
6.68981e-05
8.18288e-05
8.1833e-05
6.68985e-05
8.18972e-05
6.68094e-05
6.68964e-05
8.18282e-05
8.1832e-05
6.6897e-05
7.93916e-05
7.93916e-05
7.93915e-05
4.96304e-05
4.96312e-05
4.96284e-05
4.96282e-05
6.69355e-05
8.17397e-05
7.93707e-05
6.9398e-05
8.18082e-05
6.69979e-05
6.93991e-05
8.18928e-05
6.68121e-05
6.69342e-05
7.93696e-05
8.17384e-05
6.93963e-05
8.18071e-05
6.93978e-05
6.69953e-05
8.18173e-05
8.18171e-05
6.71261e-05
6.69063e-05
6.69063e-05
2.64555e-05
4.1634e-05
4.17403e-05
2.5993e-05
4.17459e-05
2.56183e-05
2.64421e-05
4.16267e-05
4.1734e-05
2.59844e-05
4.00029e-05
3.99995e-05
3.99991e-05
1.38233e-05
1.38224e-05
1.38196e-05
1.38185e-05
2.68683e-05
4.15507e-05
3.97983e-05
2.98777e-05
4.1842e-05
2.63629e-05
3.02303e-05
4.17303e-05
2.56195e-05
2.68678e-05
3.97954e-05
4.15473e-05
2.98742e-05
4.18418e-05
3.02273e-05
2.63642e-05
4.15947e-05
4.15942e-05
2.75485e-05
2.58546e-05
2.5852e-05
-3.46385e-06
-7.14451e-08
4.07207e-06
-5.43265e-06
-2.19093e-07
-6.37278e-06
-3.45985e-06
-9.10303e-08
4.05232e-06
-5.43538e-06
1.69536e-06
7.83385e-06
7.83217e-06
1.07876e-06
8.3314e-06
1.52571e-06
1.52485e-06
2.98556e-07
1.30953e-06
6.58145e-06
5.20467e-07
4.94866e-06
7.87212e-07
1.43113e-06
-2.45435e-07
-6.36786e-06
3.03288e-07
6.58061e-06
1.30773e-06
5.2041e-07
4.94893e-06
1.43167e-06
7.98829e-07
7.77871e-07
7.7394e-07
-4.76415e-07
-5.78665e-07
-5.61875e-07
0.00116188
0.00116188
0.00116188
0.00116188
0.00116188
0.00116188
0.00116188
0.00117678
0.00116188
0.00116191
0.00116435
0.00116192
0.00117429
0.00116191
0.00116434
0.00117675
0.00116192
0.00116188
0.00117678
0.00117658
0.00116188
0.00116188
0.00117678
0.00117678
0.00116188
0.00117678
0.00116188
0.00116188
0.00116191
0.00116434
0.00116192
0.00116188
0.00116188
0.00116434
0.00116191
0.00116192
0.00117675
0.00117429
0.00116191
0.00116434
0.00117675
0.0011743
0.00116192
0.00117678
0.00116188
0.00117678
0.00116188
0.00117675
0.00117429
0.00116434
0.00116191
0.0011743
0.00117675
0.00116192
0.00117678
0.00116188
0.00117678
0.00116188
0.00116188
0.00116188
0.00116188
0.00116188
0.00116434
0.00116191
0.00116192
0.00117429
0.00116434
0.00116191
0.00117675
0.00116192
0.00116188
0.00116188
0.00116188
0.00117678
0.00116188
0.00117658
0.00116188
0.00116188
0.00117678
0.00117679
0.00116188
0.00117678
0.00116188
0.00117678
0.00115687
0.00114197
0.00115687
0.00114197
0.00115688
0.00115688
0.00114214
0.00114197
0.00114197
0.00112207
0.00113696
0.00112207
0.00113697
0.00113677
0.00112206
0.00112206
0.00113697
0.00113697
0.00114197
0.00115687
0.00115687
0.00114197
0.00114201
0.00115684
0.00115439
0.00114443
0.00115684
0.001142
0.00114444
0.00114201
0.00115684
0.00115439
0.00114443
0.00115684
0.001142
0.00114444
0.00113697
0.00112207
0.00113696
0.00112207
0.00113697
0.00112207
0.00113696
0.00112207
0.00113693
0.00113447
0.00112209
0.00112453
0.00113694
0.00113448
0.00112211
0.00113693
0.00113447
0.00112209
0.00112453
0.00113694
0.00113448
0.00112211
0.00115688
0.00115688
0.00114214
0.00114197
0.00114197
0.00115687
0.00114197
0.00112207
0.00113696
0.00113677
0.00112206
0.00112206
0.00113697
0.00113697
0.00112207
0.00113697
0.00114201
0.00115684
0.00115439
0.00114443
0.00115684
0.001142
0.00114444
0.00114197
0.00115687
0.00115688
0.00114197
0.00114201
0.00115439
0.00115684
0.00114443
0.00115684
0.00114444
0.001142
0.00113697
0.00112207
0.00113696
0.00112207
0.00113693
0.00113447
0.00112209
0.00112453
0.00113694
0.00113448
0.00112211
0.00113697
0.00112207
0.00113696
0.00112207
0.00113693
0.00113447
0.00112453
0.00112209
0.00113448
0.00113694
0.00112211
0.00114197
0.00115687
0.00115687
0.00114197
0.00114201
0.00115439
0.00115684
0.00114443
0.00115684
0.00114444
0.001142
0.00114197
0.00115687
0.00115687
0.00114197
0.00113693
0.00113447
0.00112209
0.00112453
0.00113694
0.00113448
0.00112211
0.00113697
0.00112207
0.00113696
0.00112207
0.00113693
0.00113447
0.00112453
0.00112209
0.00113448
0.00113694
0.00112211
0.00113697
0.00112207
0.00113696
0.00112207
0.00115688
0.00115688
0.00114214
0.00114197
0.00114197
0.00115687
0.00114197
0.00112207
0.00113697
0.00113677
0.00112206
0.00112206
0.00113697
0.00113697
0.00112207
0.00113696
0.00114201
0.00115439
0.00115684
0.00114443
0.00115684
0.00114444
0.001142
0.00114197
0.00115687
0.00115687
0.00114197
0.00114197
0.00115687
0.00115687
0.00114197
0.00113693
0.00113447
0.00112453
0.00112209
0.00113448
0.00113694
0.00112211
0.00113693
0.00113447
0.00112453
0.00112209
0.00113448
0.00113694
0.00112211
0.00113697
0.00112207
0.00113696
0.00112207
0.00113697
0.00112207
0.00113696
0.00112207
0.00115687
0.00114197
0.00115687
0.00114197
0.00113677
0.00112206
0.00112206
0.00113697
0.00113697
0.00112207
0.00113696
0.00112207
0.00113696
0.00111706
0.00110216
0.00111706
0.00110216
0.00111706
0.00111706
0.00110233
0.00110216
0.00110216
0.00108226
0.00109716
0.00108226
0.00109716
0.00109696
0.00108226
0.00108226
0.00109716
0.00109716
0.00110216
0.00111706
0.00111706
0.00110216
0.0011022
0.00111703
0.00111458
0.00110462
0.00111703
0.00110219
0.00110463
0.0011022
0.00111703
0.00111458
0.00110462
0.00111703
0.00110219
0.00110463
0.00109716
0.00108226
0.00109716
0.00108226
0.00109716
0.00108226
0.00109716
0.00108226
0.00109712
0.00109467
0.00108229
0.00108473
0.00109713
0.00109468
0.0010823
0.00109712
0.00109467
0.00108229
0.00108473
0.00109713
0.00109468
0.0010823
0.00111706
0.00111706
0.00110233
0.00110216
0.00110216
0.00111706
0.00110216
0.00108226
0.00109716
0.00109696
0.00108226
0.00108226
0.00109716
0.00109716
0.00108226
0.00109716
0.0011022
0.00111703
0.00111458
0.00110462
0.00111703
0.00110219
0.00110463
0.00110216
0.00111706
0.00111706
0.00110216
0.0011022
0.00111458
0.00111703
0.00110462
0.00111703
0.00110463
0.00110219
0.00109716
0.00108226
0.00109716
0.00108226
0.00109712
0.00109467
0.00108229
0.00108473
0.00109713
0.00109468
0.0010823
0.00109716
0.00108226
0.00109716
0.00108226
0.00109712
0.00109467
0.00108473
0.00108229
0.00109468
0.00109713
0.0010823
0.00110216
0.00111706
0.00111706
0.00110216
0.0011022
0.00111458
0.00111703
0.00110462
0.00111703
0.00110463
0.00110219
0.00110216
0.00111706
0.00111706
0.00110216
0.00109712
0.00109467
0.00108229
0.00108473
0.00109713
0.00109468
0.0010823
0.00109716
0.00108226
0.00109716
0.00108226
0.00109712
0.00109467
0.00108473
0.00108229
0.00109468
0.00109713
0.0010823
0.00109716
0.00108226
0.00109716
0.00108226
0.00111706
0.00111706
0.00110233
0.00110216
0.00110216
0.00111706
0.00110216
0.00108226
0.00109716
0.00109696
0.00108226
0.00108226
0.00109716
0.00109716
0.00108226
0.00109716
0.00110221
0.00111458
0.00111703
0.00110462
0.00111703
0.00110463
0.00110219
0.00110216
0.00111706
0.00111706
0.00110216
0.00110216
0.00111706
0.00111706
0.00110216
0.00109712
0.00109467
0.00108473
0.00108229
0.00109468
0.00109713
0.0010823
0.00109712
0.00109467
0.00108473
0.00108229
0.00109468
0.00109713
0.0010823
0.00109716
0.00108226
0.00109716
0.00108226
0.00109716
0.00108226
0.00109716
0.00108226
0.00111706
0.00110216
0.00111706
0.00110216
0.00109696
0.00108226
0.00108226
0.00109716
0.00109716
0.00108226
0.00109716
0.00108226
0.00109716
0.00107726
0.00106236
0.00107726
0.00106236
0.00107726
0.00107726
0.00106253
0.00106236
0.00106236
0.00104246
0.00105735
0.00104246
0.00105735
0.00105716
0.00104246
0.00104246
0.00105736
0.00105736
0.00106236
0.00107725
0.00107726
0.00106236
0.0010624
0.00107723
0.00107477
0.00106481
0.00107722
0.00106239
0.00106482
0.0010624
0.00107723
0.00107477
0.00106481
0.00107722
0.00106239
0.00106482
0.00105736
0.00104246
0.00105735
0.00104246
0.00105736
0.00104246
0.00105735
0.00104246
0.00105732
0.00105486
0.00104249
0.00104492
0.00105733
0.00105487
0.0010425
0.00105732
0.00105486
0.00104249
0.00104492
0.00105733
0.00105487
0.0010425
0.00107726
0.00107726
0.00106253
0.00106236
0.00106236
0.00107726
0.00106236
0.00104246
0.00105735
0.00105716
0.00104246
0.00104246
0.00105736
0.00105736
0.00104246
0.00105736
0.0010624
0.00107723
0.00107477
0.00106481
0.00107722
0.00106239
0.00106482
0.00106236
0.00107725
0.00107726
0.00106236
0.0010624
0.00107477
0.00107723
0.00106481
0.00107722
0.00106482
0.00106239
0.00105736
0.00104246
0.00105735
0.00104246
0.00105732
0.00105486
0.00104249
0.00104492
0.00105733
0.00105487
0.0010425
0.00105736
0.00104246
0.00105735
0.00104246
0.00105732