/*--------------------------------*- C++ -*----------------------------------*\
| =========                 |                                                 |
| \\      /  F ield         | OpenFOAM: The Open Source CFD Toolbox           |
|  \\    /   O peration     | Version:  v1912                                 |
|   \\  /    A nd           | Website:  www.openfoam.com                      |
|    \\/     M anipulation  |                                                 |
\*---------------------------------------------------------------------------*/
FoamFile
{
    version     2.0;
    format      ascii;
    class       surfaceScalarField;
    location    "40";
    object      phi;
}
// * * * * * * * * * * * * * * * * * * * * * * * * * * * * * * * * * * * * * //

dimensions      [0 3 -1 0 0 0 0];
oriented        oriented;


internalField   nonuniform List<scalar> 
165494
(
1.67315e-09
1.89929e-09
-0.00109752
-2.0005e-09
-2.14938e-09
0.00109752
-0.00109668
-1.2451e-06
-2.0517e-09
4.07828e-09
0.00109667
-2.8115e-07
1.24879e-06
2.79396e-07
9.3687e-07
-2.88131e-07
-9.36247e-07
2.83651e-07
-0.00109633
-1.2397e-06
-2.02215e-09
4.22025e-09
0.00109633
-2.81213e-07
1.24325e-06
2.79364e-07
9.36643e-07
-2.90902e-07
-9.362e-07
2.86366e-07
-0.000269238
1.27379e-06
1.23978e-06
-2.37223e-07
-2.42492e-07
0.000267204
2.11218e-09
2.25418e-09
-0.00109752
-2.11651e-09
-2.18945e-09
0.00109752
-0.00109667
-1.24509e-06
-2.42818e-09
4.14684e-09
0.00109667
-2.81136e-07
1.24878e-06
2.79396e-07
9.36954e-07
-2.88005e-07
-9.36153e-07
2.83755e-07
-0.00109633
-1.23964e-06
-2.26151e-09
4.22242e-09
0.00109633
-2.81172e-07
1.24326e-06
2.79383e-07
9.36731e-07
-2.90768e-07
-9.36064e-07
2.86465e-07
-0.000269237
1.27379e-06
1.23973e-06
-2.37191e-07
-2.4248e-07
0.000267204
2.23701e-09
2.42541e-09
-0.00109752
-2.20928e-09
-2.22451e-09
0.00109752
-0.00109667
-1.24507e-06
-2.50962e-09
4.13987e-09
0.00109667
-2.81143e-07
1.24881e-06
2.7941e-07
9.36976e-07
-2.8794e-07
-9.36176e-07
2.83844e-07
-0.00109633
-1.23961e-06
-2.48171e-09
4.16217e-09
0.00109633
-2.81137e-07
1.24329e-06
2.79417e-07
9.36814e-07
-2.90671e-07
-9.3599e-07
2.86587e-07
-0.000269237
1.27378e-06
1.23974e-06
-2.37189e-07
-2.42466e-07
0.000267203
2.23805e-09
2.4321e-09
-0.00109752
-2.23085e-09
-2.22355e-09
0.00109752
-0.00109667
-1.2451e-06
-2.54392e-09
4.19432e-09
0.00109667
-2.81198e-07
1.24882e-06
2.79416e-07
9.37041e-07
-2.87953e-07
-9.36164e-07
2.83899e-07
-0.00109633
-1.23963e-06
-2.55586e-09
4.20094e-09
0.00109633
-2.81179e-07
1.24331e-06
2.79426e-07
9.36847e-07
-2.90672e-07
-9.36033e-07
2.86649e-07
-0.000269236
1.27378e-06
1.23976e-06
-2.37204e-07
-2.4247e-07
0.000267203
2.23664e-09
2.56482e-09
-0.00109752
-2.31156e-09
-2.21924e-09
0.00109752
-0.00109667
-1.24513e-06
-2.37131e-09
4.2185e-09
0.00109667
-2.81251e-07
1.24886e-06
2.79465e-07
9.37055e-07
-2.88011e-07
-9.36217e-07
2.83936e-07
-0.00109632
-1.23964e-06
-2.64446e-09
4.19379e-09
0.00109632
-2.81222e-07
1.24336e-06
2.79471e-07
9.36945e-07
-2.90668e-07
-9.36005e-07
2.86742e-07
-0.000269236
1.27379e-06
1.23982e-06
-2.37244e-07
-2.42461e-07
0.000267202
2.24057e-09
2.67514e-09
-0.00109752
-2.38462e-09
-2.17916e-09
0.00109752
-0.00109667
-1.24516e-06
-1.8789e-09
4.174e-09
0.00109667
-2.81326e-07
1.24891e-06
2.7948e-07
9.36926e-07
-2.88211e-07
-9.36409e-07
2.83826e-07
-0.00109632
-1.23964e-06
-2.47322e-09
3.97115e-09
0.00109632
-2.81257e-07
1.24346e-06
2.79554e-07
9.36908e-07
-2.90815e-07
-9.36145e-07
2.86737e-07
-0.000269235
1.27388e-06
1.23993e-06
-2.37362e-07
-2.4255e-07
0.000267201
6.93766e-10
8.43343e-10
-0.00109752
-1.47324e-09
-1.51058e-09
0.00109752
-0.00109667
-1.24545e-06
-1.241e-09
4.47723e-09
0.00109667
-2.81648e-07
1.24875e-06
2.7927e-07
9.36653e-07
-2.88934e-07
-9.369e-07
2.83297e-07
-0.00109632
-1.24e-06
-9.89221e-10
4.52934e-09
0.00109633
-2.81645e-07
1.24322e-06
2.79245e-07
9.36371e-07
-2.91627e-07
-9.36806e-07
2.85991e-07
-0.000269236
1.27413e-06
1.24011e-06
-2.37678e-07
-2.42937e-07
0.000267202
1.48737e-09
1.67652e-09
-0.00109752
-1.85311e-09
-1.85321e-09
0.00109752
-0.00109668
-1.24543e-06
-1.54213e-09
4.57745e-09
0.00109668
-2.81532e-07
1.24876e-06
2.79327e-07
9.36812e-07
-2.88556e-07
-9.36671e-07
2.83585e-07
-0.00109633
-1.23989e-06
-1.68579e-09
4.46875e-09
0.00109633
-2.8146e-07
1.24332e-06
2.79402e-07
9.3668e-07
-2.91304e-07
-9.36517e-07
2.86349e-07
-0.000269238
1.27412e-06
1.24008e-06
-2.37536e-07
-2.42831e-07
0.000267204
1.97045e-09
1.84061e-09
-0.00109752
-1.81005e-09
-2.0514e-09
0.00109752
-0.00109668
-1.24517e-06
-2.82656e-09
4.03807e-09
0.00109668
-2.81237e-07
1.24899e-06
2.79607e-07
9.37167e-07
-2.8818e-07
-9.36319e-07
2.83967e-07
-0.00109633
-1.23986e-06
-2.2854e-09
4.49453e-09
0.00109633
-2.81399e-07
1.24334e-06
2.79465e-07
9.36853e-07
-2.91053e-07
-9.3633e-07
2.8658e-07
-0.000269238
1.27389e-06
1.2398e-06
-2.37248e-07
-2.42583e-07
0.000267204
2.65572e-09
2.77524e-09
-0.00109752
-2.41842e-09
-2.46304e-09
0.00109752
-0.00109668
-1.24505e-06
-2.79093e-09
3.90617e-09
0.00109668
-2.81142e-07
1.24903e-06
2.79633e-07
9.37165e-07
-2.88085e-07
-9.36227e-07
2.83975e-07
-0.00109633
-1.23958e-06
-2.89871e-09
3.89252e-09
0.00109633
-2.81115e-07
1.24354e-06
2.79669e-07
9.3702e-07
-2.90776e-07
-9.36076e-07
2.86776e-07
-0.000269238
1.27377e-06
1.23973e-06
-2.37143e-07
-2.42429e-07
0.000267204
2.17978e-09
2.41544e-09
-0.00109752
-2.27197e-09
-2.23013e-09
0.00109752
-0.00109667
-1.24516e-06
-2.34151e-09
4.10164e-09
0.00109667
-2.8126e-07
1.24892e-06
2.79517e-07
9.3704e-07
-2.88219e-07
-9.36359e-07
2.83848e-07
-0.00109633
-1.23967e-06
-2.4764e-09
4.04475e-09
0.00109633
-2.81229e-07
1.24343e-06
2.7955e-07
9.36888e-07
-2.90907e-07
-9.36197e-07
2.86638e-07
-0.000269238
1.27386e-06
1.23986e-06
-2.37295e-07
-2.42544e-07
0.000267204
2.04162e-09
2.23448e-09
-0.00109752
-2.15423e-09
-2.1525e-09
0.00109752
-0.00109667
-1.2452e-06
-2.24882e-09
4.18006e-09
0.00109667
-2.81308e-07
1.24889e-06
2.7948e-07
9.37015e-07
-2.88246e-07
-9.36391e-07
2.83828e-07
-0.00109633
-1.23973e-06
-2.30345e-09
4.1855e-09
0.00109633
-2.81296e-07
1.24338e-06
2.79495e-07
9.36844e-07
-2.90961e-07
-9.36253e-07
2.86594e-07
-0.000269238
1.27391e-06
1.23989e-06
-2.37331e-07
-2.42599e-07
0.000267204
2.04173e-09
2.20933e-09
-0.00109752
-2.1308e-09
-2.14736e-09
0.00109752
-0.00109667
-1.2452e-06
-2.27138e-09
4.18851e-09
0.00109667
-2.81309e-07
1.24889e-06
2.7948e-07
9.37019e-07
-2.88242e-07
-9.36387e-07
2.83831e-07
-0.00109633
-1.23974e-06
-2.3215e-09
4.2148e-09
0.00109633
-2.81301e-07
1.24338e-06
2.79491e-07
9.36848e-07
-2.90956e-07
-9.36248e-07
2.86598e-07
-0.000269238
1.2739e-06
1.23989e-06
-2.37326e-07
-2.42591e-07
0.000267204
2.05315e-09
2.20485e-09
-0.00109752
-2.12868e-09
-2.15459e-09
0.00109752
-0.00109667
-1.2452e-06
-2.25607e-09
4.18392e-09
0.00109667
-2.81308e-07
1.24889e-06
2.79482e-07
9.37015e-07
-2.88247e-07
-9.36391e-07
2.83827e-07
-0.00109633
-1.23974e-06
-2.30661e-09
4.21761e-09
0.00109633
-2.81302e-07
1.24338e-06
2.79492e-07
9.36844e-07
-2.90961e-07
-9.36254e-07
2.86594e-07
-0.000269238
1.27391e-06
1.23989e-06
-2.37328e-07
-2.42596e-07
0.000267204
2.05086e-09
2.20916e-09
-0.00109752
-2.12593e-09
-2.14924e-09
0.00109752
-0.00109667
-1.2452e-06
-2.27883e-09
4.18369e-09
0.00109667
-2.81307e-07
1.24889e-06
2.79482e-07
9.37022e-07
-2.8824e-07
-9.36383e-07
2.83832e-07
-0.00109633
-1.23973e-06
-2.3345e-09
4.20648e-09
0.00109633
-2.81295e-07
1.24338e-06
2.79498e-07
9.36849e-07
-2.90953e-07
-9.36247e-07
2.86601e-07
-0.000269238
1.2739e-06
1.23988e-06
-2.3732e-07
-2.42589e-07
0.000267204
2.03383e-09
2.19513e-09
-0.00109752
-2.12146e-09
-2.1434e-09
0.00109752
-0.00109667
-1.2452e-06
-2.24806e-09
4.19248e-09
0.00109667
-2.81311e-07
1.24889e-06
2.79476e-07
9.37013e-07
-2.88247e-07
-9.36392e-07
2.83826e-07
-0.00109633
-1.23974e-06
-2.29589e-09
4.21761e-09
0.00109633
-2.81303e-07
1.24338e-06
2.79491e-07
9.36841e-07
-2.90963e-07
-9.36257e-07
2.86592e-07
-0.000269238
1.27391e-06
1.23989e-06
-2.37327e-07
-2.42596e-07
0.000267204
2.0357e-09
2.19792e-09
-0.00109752
-2.12302e-09
-2.14273e-09
0.00109752
-0.00109667
-1.2452e-06
-2.25269e-09
4.19145e-09
0.00109667
-2.81309e-07
1.24889e-06
2.79479e-07
9.37015e-07
-2.88244e-07
-9.36389e-07
2.83828e-07
-0.00109633
-1.23974e-06
-2.2935e-09
4.221e-09
0.00109633
-2.81301e-07
1.24338e-06
2.79491e-07
9.36842e-07
-2.90962e-07
-9.36254e-07
2.86591e-07
-0.000269238
1.27391e-06
1.23989e-06
-2.37323e-07
-2.42593e-07
0.000267204
2.01783e-09
2.18757e-09
-0.00109752
-2.11363e-09
-2.13012e-09
0.00109752
-0.00109667
-1.2452e-06
-2.25249e-09
4.19067e-09
0.00109667
-2.8131e-07
1.24889e-06
2.79479e-07
9.37014e-07
-2.88247e-07
-9.36392e-07
2.83826e-07
-0.00109633
-1.23974e-06
-2.29597e-09
4.21096e-09
0.00109633
-2.81299e-07
1.24338e-06
2.79492e-07
9.36841e-07
-2.90961e-07
-9.36256e-07
2.86593e-07
-0.000269238
1.27391e-06
1.23989e-06
-2.37329e-07
-2.42601e-07
0.000267204
2.03938e-09
2.20204e-09
-0.00109752
-2.12098e-09
-2.14122e-09
0.00109752
-0.00109667
-1.2452e-06
-2.2637e-09
4.18344e-09
0.00109667
-2.81308e-07
1.24889e-06
2.79476e-07
9.37011e-07
-2.88243e-07
-9.36389e-07
2.83824e-07
-0.00109633
-1.23974e-06
-2.30312e-09
4.20493e-09
0.00109633
-2.813e-07
1.24338e-06
2.79492e-07
9.3684e-07
-2.90961e-07
-9.36254e-07
2.8659e-07
-0.000269238
1.27391e-06
1.23989e-06
-2.37325e-07
-2.42595e-07
0.000267204
2.15075e-09
2.31639e-09
-0.00109752
-2.18337e-09
-2.20377e-09
0.00109752
-0.00109667
-1.24518e-06
-2.37081e-09
4.11374e-09
0.00109667
-2.81289e-07
1.2489e-06
2.79488e-07
9.36994e-07
-2.88202e-07
-9.36351e-07
2.83803e-07
-0.00109633
-1.23972e-06
-2.41445e-09
4.13889e-09
0.00109633
-2.81284e-07
1.24338e-06
2.795e-07
9.36825e-07
-2.90918e-07
-9.36216e-07
2.8657e-07
-0.000269238
1.2739e-06
1.23988e-06
-2.37322e-07
-2.42593e-07
0.000267204
2.27623e-09
2.43513e-09
-0.00109752
-2.25249e-09
-2.27302e-09
0.00109752
-0.00109667
-1.24514e-06
-2.49622e-09
4.03116e-09
0.00109667
-2.8127e-07
1.24886e-06
2.79491e-07
9.36794e-07
-2.87847e-07
-9.36145e-07
2.83395e-07
-0.00109633
-1.23968e-06
-2.53057e-09
4.06097e-09
0.00109633
-2.81267e-07
1.24335e-06
2.79502e-07
9.36623e-07
-2.90564e-07
-9.36009e-07
2.8616e-07
-0.000269238
1.27384e-06
1.23981e-06
-2.37245e-07
-2.42515e-07
0.000267204
2.3588e-09
2.52313e-09
-0.00109752
-2.30732e-09
-2.32349e-09
0.00109752
-0.00109667
-1.24471e-06
-2.59724e-09
3.95954e-09
0.00109668
-2.80686e-07
1.2484e-06
2.78803e-07
9.36423e-07
-2.86863e-07
-9.35752e-07
2.82482e-07
-0.00109633
-1.23926e-06
-2.63113e-09
3.99004e-09
0.00109633
-2.80652e-07
1.24289e-06
2.7881e-07
9.36256e-07
-2.89581e-07
-9.35617e-07
2.85245e-07
-0.000269238
1.27342e-06
1.23939e-06
-2.36422e-07
-2.41696e-07
0.000267203
1.76103e-09
1.91945e-09
-0.00109752
-2.03594e-09
-2.05643e-09
0.00109752
-0.00109667
-1.245e-06
-1.9793e-09
4.041e-09
0.00109667
-2.80824e-07
1.24869e-06
2.7907e-07
9.36746e-07
-2.87291e-07
-9.36178e-07
2.82737e-07
-0.00109633
-1.23955e-06
-2.01765e-09
4.06543e-09
0.00109633
-2.80786e-07
1.24318e-06
2.79082e-07
9.36573e-07
-2.89999e-07
-9.36036e-07
2.85496e-07
-0.000269238
1.27372e-06
1.2397e-06
-2.36744e-07
-2.42016e-07
0.000267203
6.56255e-10
8.60735e-10
-0.00109752
-1.69792e-09
-1.71251e-09
0.00109752
-0.00109668
-1.24422e-06
-9.29085e-10
4.3682e-09
0.00109668
-2.80117e-07
1.24776e-06
2.7797e-07
9.35523e-07
-2.84766e-07
-9.35204e-07
2.79729e-07
-0.00109633
-1.23877e-06
-9.77989e-10
4.38556e-09
0.00109633
-2.80082e-07
1.24224e-06
2.77985e-07
9.35356e-07
-2.87474e-07
-9.35055e-07
2.8249e-07
-0.000269239
1.27292e-06
1.2389e-06
-2.35431e-07
-2.40701e-07
0.000267203
-6.62678e-10
-5.70433e-10
-0.00109752
-1.3283e-09
-1.34362e-09
0.00109752
-0.00109668
-1.24386e-06
5.19e-10
4.80289e-09
0.00109667
-2.78947e-07
1.24722e-06
2.76722e-07
9.33402e-07
-2.81582e-07
-9.33545e-07
2.76221e-07
-0.00109633
-1.2384e-06
4.93621e-10
4.82909e-09
0.00109633
-2.78908e-07
1.24171e-06
2.76693e-07
9.33223e-07
-2.84289e-07
-9.33404e-07
2.78976e-07
-0.00026924
1.27257e-06
1.23854e-06
-2.34148e-07
-2.3942e-07
0.000267202
-3.24432e-09
-3.13069e-09
-0.00109752
-8.10029e-10
-8.08247e-10
0.00109753
-0.00109668
-1.24279e-06
3.08129e-09
6.14395e-09
0.00109668
-2.77045e-07
1.24568e-06
2.74255e-07
9.29192e-07
-2.7605e-07
-9.30151e-07
2.69468e-07
-0.00109633
-1.23734e-06
3.06287e-09
6.18358e-09
0.00109633
-2.77018e-07
1.24018e-06
2.74229e-07
9.2901e-07
-2.78753e-07
-9.30011e-07
2.72238e-07
-0.000269241
1.2715e-06
1.23747e-06
-2.31897e-07
-2.37168e-07
0.000267201
-8.31329e-09
-8.16489e-09
-0.00109752
-2.09605e-10
-1.83701e-10
0.00109753
-0.00109668
-1.2406e-06
8.14694e-09
9.2355e-09
0.00109668
-2.7347e-07
1.24231e-06
2.693e-07
9.21116e-07
-2.65405e-07
-9.23932e-07
2.56642e-07
-0.00109633
-1.23513e-06
8.09464e-09
9.24688e-09
0.00109633
-2.73469e-07
1.23682e-06
2.69306e-07
9.20932e-07
-2.68131e-07
-9.2374e-07
2.59401e-07
-0.000269244
1.2693e-06
1.23525e-06
-2.27684e-07
-2.3295e-07
0.0002672
-2.9009e-09
-2.69993e-09
-0.00109752
-4.76234e-09
-9.73607e-09
0.00109754
-0.00109668
-1.23412e-06
7.74864e-09
5.69299e-09
0.00109669
-2.64613e-07
1.23557e-06
2.62819e-07
9.0849e-07
-2.47138e-07
-9.12808e-07
2.33892e-07
-0.00109635
-1.22594e-06
2.65457e-09
1.07903e-08
0.00109635
-2.64546e-07
1.22736e-06
2.60023e-07
9.05571e-07
-2.47064e-07
-9.09868e-07
2.367e-07
-0.000269255
1.26552e-06
1.22877e-06
-2.15066e-07
-2.2027e-07
0.000267196
8.18461e-07
8.2567e-07
-0.0010974
-7.11729e-07
-7.01546e-07
0.00109717
-0.00109695
-1.13589e-06
-8.19871e-07
-3.63191e-07
0.00109729
-1.75304e-07
1.38572e-06
3.45436e-07
1.04088e-06
-1.27778e-07
-7.99766e-07
3.16106e-07
-0.00109663
-1.12763e-06
-8.30715e-07
-3.74198e-07
0.00109698
-1.75168e-07
1.38038e-06
3.48373e-07
1.03785e-06
-1.33381e-07
-7.96849e-07
3.18949e-07
-0.000269333
1.17004e-06
1.12777e-06
-1.24425e-07
-1.26946e-07
0.000267286
4.98186e-06
4.97513e-06
-0.0010835
-1.06757e-05
-1.05779e-05
0.000262981
0.000266512
0.000265515
0.000265515
4.03653e-06
6.40408e-06
6.69339e-06
4.04029e-06
6.40479e-06
6.69677e-06
-0.000271343
5.16381e-06
-4.97249e-06
5.716e-06
-3.26865e-06
0.000268705
-0.00027132
-4.97473e-06
5.1691e-06
-3.27651e-06
5.71309e-06
0.000268689
-0.000269854
-5.16075e-06
-5.1719e-06
5.77936e-06
5.76734e-06
0.00026864
-1.28285e-06
-1.24616e-06
0.000269254
-0.000267209
2.38381e-07
2.46103e-07
0.00109588
-7.747e-09
4.32586e-09
-1.27926e-06
2.84855e-07
-2.86868e-07
-9.36427e-07
2.83415e-07
-2.88251e-07
9.36609e-07
1.28836e-06
0.00109633
-1.46108e-09
-0.00109633
4.38639e-09
-1.28478e-06
2.87737e-07
-2.89657e-07
-9.41984e-07
2.86352e-07
-2.91105e-07
9.42393e-07
-1.24879e-06
0.000269283
-0.00026723
2.41102e-07
2.43386e-07
0.00109694
3.37165e-09
-1.08648e-09
-1.24244e-06
2.82366e-07
-2.84027e-07
-9.3912e-07
2.86403e-07
-2.91109e-07
9.39614e-07
1.28297e-06
0.001096
-1.93399e-09
4.18203e-09
-1.27923e-06
2.87797e-07
-2.896e-07
-9.39184e-07
2.86332e-07
-2.91026e-07
9.39501e-07
-1.82495e-09
-0.00109668
4.03378e-09
-1.24512e-06
2.79395e-07
-2.81158e-07
-9.36296e-07
2.83603e-07
9.36817e-07
-2.88186e-07
1.27744e-06
0.00109579
-1.65475e-09
-0.00109579
4.31746e-09
-1.2738e-06
2.82077e-07
-2.8391e-07
-9.39039e-07
2.83492e-07
-2.88155e-07
9.3945e-07
-1.24323e-06
0.000269233
-0.000267191
2.385e-07
2.45937e-07
-1.89625e-09
4.1088e-09
-1.2397e-06
2.79346e-07
-2.81235e-07
-9.36226e-07
2.8627e-07
9.36591e-07
-2.90982e-07
1.24339e-06
0.00109685
3.45083e-09
-0.00109686
9.31499e-09
-1.23978e-06
2.79468e-07
-2.81259e-07
-9.36371e-07
2.86433e-07
-2.91034e-07
9.36936e-07
-0.000267204
2.40836e-07
2.46157e-07
1.27925e-06
1.24247e-06
-2.34678e-07
-2.42496e-07
0.000267209
-1.28284e-06
-1.24612e-06
0.000269254
-0.000267209
2.38352e-07
2.46142e-07
4.4621e-09
0.00109588
-2.86818e-07
1.28289e-06
2.849e-07
9.36706e-07
-2.88201e-07
-9.36343e-07
2.83479e-07
-1.28477e-06
-1.63518e-09
9.44399e-09
0.00109632
-2.89655e-07
1.28837e-06
2.8774e-07
9.42436e-07
-2.91069e-07
-9.41953e-07
2.86391e-07
0.00109588
-2.11132e-09
-0.00109588
4.39163e-09
-1.27923e-06
2.84879e-07
-2.86762e-07
-9.36172e-07
2.83584e-07
-2.88034e-07
9.3679e-07
1.28837e-06
0.00109632
-1.95989e-09
-0.00109632
4.25963e-09
-1.28474e-06
2.87752e-07
-2.89619e-07
-9.41868e-07
2.86466e-07
-2.90961e-07
9.42493e-07
-2.37439e-07
-2.39755e-07
0.00026723
-1.24878e-06
0.000269283
-0.00026723
2.41119e-07
2.43423e-07
4.04658e-09
0.00109694
-2.8403e-07
1.24611e-06
2.82319e-07
9.39642e-07
-2.91067e-07
-9.39082e-07
2.86421e-07
-1.27927e-06
-1.95275e-09
4.27192e-09
0.001096
-2.89588e-07
1.28294e-06
2.87788e-07
9.39505e-07
-2.90975e-07
-9.39063e-07
2.86378e-07
0.00109694
-2.23875e-09
-0.00109694
4.10322e-09
-1.24245e-06
2.82297e-07
-2.84052e-07
-9.38964e-07
2.86543e-07
-2.90938e-07
9.39747e-07
1.2829e-06
0.001096
-2.00171e-09
-0.001096
4.30605e-09
-1.27929e-06
2.87746e-07
-2.89611e-07
-9.38969e-07
2.86443e-07
-2.90882e-07
9.39564e-07
3.27281e-09
4.31946e-09
0.00109579
-2.83901e-07
1.27743e-06
2.82077e-07
9.36777e-07
-2.8811e-07
2.83537e-07
-9.38987e-07
-2.38734e-09
-0.00109667
4.14808e-09
-1.24509e-06
2.79385e-07
-2.81141e-07
-9.36153e-07
2.83735e-07
9.36939e-07
-2.88022e-07
1.27741e-06
0.00109579
-2.18604e-09
-0.00109579
4.32724e-09
-1.27379e-06
2.82066e-07
-2.83897e-07
-9.36185e-07
2.83617e-07
-2.88004e-07
9.36831e-07
-2.34901e-07
-2.42259e-07
0.000267191
-1.24327e-06
0.000269232
-0.000267191
2.38523e-07
2.45922e-07
-1.85181e-09
4.20616e-09
0.00109685
-2.81254e-07
1.24338e-06
2.79464e-07
9.36978e-07
-2.90995e-07
2.86472e-07
-9.36375e-07
-2.20727e-09
-0.00109633
4.23527e-09
-1.23965e-06
2.79369e-07
-2.81182e-07
-9.36009e-07
2.86435e-07
9.36778e-07
-2.90799e-07
1.2434e-06
0.00109685
-2.21672e-09
-0.00109685
4.07165e-09
-1.23975e-06
2.7948e-07
-2.81229e-07
-9.36291e-07
2.86555e-07
-2.90888e-07
9.37041e-07
-0.000267204
2.40862e-07
2.4616e-07
1.27923e-06
1.24244e-06
-2.34689e-07
-2.4246e-07
0.000267209
-1.28287e-06
-1.24614e-06
0.000269253
-0.000267209
2.38393e-07
2.46188e-07
4.37579e-09
0.00109588
-2.86762e-07
1.28283e-06
2.84885e-07
9.36783e-07
-2.88038e-07
-9.36189e-07
2.83583e-07
-1.28473e-06
-2.00796e-09
4.26085e-09
0.00109632
-2.8961e-07
1.28837e-06
2.87766e-07
9.42505e-07
-2.90954e-07
-9.41871e-07
2.86481e-07
0.00109588
-2.25306e-09
-0.00109588
4.33435e-09
-1.2792e-06
2.84928e-07
-2.8672e-07
-9.36126e-07
2.83678e-07
-2.87965e-07
9.36852e-07
1.2884e-06
0.00109632
-2.13333e-09
-0.00109632
4.28547e-09
-1.28471e-06
2.87783e-07
-2.89603e-07
-9.41853e-07
2.86558e-07
-2.90889e-07
9.42511e-07
-2.37415e-07
-2.39716e-07
0.00026723
-1.2488e-06
0.000269282
-0.00026723
2.41163e-07
2.43464e-07
4.10731e-09
0.00109694
-2.84042e-07
1.24612e-06
2.82308e-07
9.39767e-07
-2.90928e-07
-9.3895e-07
2.86556e-07
-1.27929e-06
-2.04925e-09
4.30855e-09
0.001096
-2.8961e-07
1.2829e-06
2.87755e-07
9.39575e-07
-2.90871e-07
-9.38961e-07
2.86456e-07
0.00109694
-2.41096e-09
-0.00109694
4.07411e-09
-1.24242e-06
2.82344e-07
-2.83997e-07
-9.38939e-07
2.86636e-07
-2.90857e-07
9.39774e-07
1.28293e-06
0.00109599
-2.17864e-09
-0.00109599
4.26216e-09
-1.27926e-06
2.87801e-07
-2.89555e-07
-9.38929e-07
2.86535e-07
-2.90806e-07
9.39598e-07
-2.23385e-09
4.31371e-09
0.00109579
-2.83883e-07
1.27741e-06
2.82078e-07
9.36847e-07
-2.87992e-07
2.83636e-07
-9.36186e-07
-2.49516e-09
-0.00109667
4.13803e-09
-1.24507e-06
2.79411e-07
-2.81131e-07
-9.36146e-07
2.83826e-07
9.36948e-07
-2.87946e-07
1.27742e-06
0.00109579
-2.25076e-09
-0.00109579
4.33016e-09
-1.27378e-06
2.82084e-07
-2.83878e-07
-9.36178e-07
2.83706e-07
-2.87934e-07
9.36842e-07
-2.34876e-07
-2.42266e-07
0.000267191
-1.2433e-06
0.000269232
-0.00026719
2.38576e-07
2.45978e-07
-2.26033e-09
4.06144e-09
0.00109685
-2.81211e-07
1.2434e-06
2.79496e-07
9.37059e-07
-2.90879e-07
2.86568e-07
-9.36289e-07
-2.46554e-09
-0.00109633
4.1518e-09
-1.23961e-06
2.79434e-07
-2.81114e-07
-9.35955e-07
2.86545e-07
9.36868e-07
-2.90714e-07
1.2434e-06
0.00109685
-2.37331e-09
-0.00109685
4.11294e-09
-1.23973e-06
2.79496e-07
-2.81207e-07
-9.36257e-07
2.86647e-07
-2.90818e-07
9.37102e-07
-0.000267203
2.40888e-07
2.4619e-07
1.2792e-06
1.24242e-06
-2.34661e-07
-2.42425e-07
0.000267209
-1.28287e-06
-1.24614e-06
0.000269253
-0.000267208
2.38395e-07
2.46194e-07
4.33017e-09
0.00109588
-2.86733e-07
1.28287e-06
2.84921e-07
9.36843e-07
-2.87962e-07
-9.36151e-07
2.8369e-07
-1.28471e-06
-2.14098e-09
4.28918e-09
0.00109632
-2.89614e-07
1.2884e-06
2.87781e-07
9.42539e-07
-2.90886e-07
-9.41882e-07
2.86579e-07
0.00109588
-2.30018e-09
-0.00109588
4.35055e-09
-1.27921e-06
2.84902e-07
-2.8678e-07
-9.36134e-07
2.83751e-07
-2.8793e-07
9.36885e-07
1.2884e-06
0.00109632
-2.11647e-09
-0.00109632
4.32197e-09
-1.28474e-06
2.87776e-07
-2.89654e-07
-9.41868e-07
2.86613e-07
-2.90883e-07
9.4257e-07
-2.37395e-07
-2.39701e-07
0.00026723
-1.24881e-06
0.000269282
-0.000267229
2.41177e-07
2.43471e-07
4.09054e-09
0.00109694
-2.84013e-07
1.24614e-06
2.82334e-07
9.39797e-07
-2.90855e-07
-9.38941e-07
2.86656e-07
-1.27926e-06
-2.19376e-09
4.28607e-09
0.00109599
-2.89576e-07
1.28293e-06
2.87789e-07
9.39596e-07
-2.90803e-07
-9.38963e-07
2.86554e-07
0.00109694
-2.45012e-09
-0.00109694
4.12423e-09
-1.24244e-06
2.82316e-07
-2.8406e-07
-9.38954e-07
2.86713e-07
-2.90823e-07
9.39814e-07
1.28294e-06
0.00109599
-2.21951e-09
-0.00109599
4.2823e-09
-1.27928e-06
2.87782e-07
-2.89623e-07
-9.38937e-07
2.86613e-07
-2.90772e-07
9.39624e-07
-2.25541e-09
4.3212e-09
0.00109579
-2.83888e-07
1.27742e-06
2.82081e-07
9.36868e-07
-2.87936e-07
2.83721e-07
-9.36206e-07
-2.49325e-09
-0.00109667
4.18742e-09
-1.24509e-06
2.79407e-07
-2.81179e-07
-9.36164e-07
2.83882e-07
9.37009e-07
-2.87946e-07
1.27743e-06
0.00109579
-2.26011e-09
-0.00109579
4.32726e-09
-1.27379e-06
2.82092e-07
-2.83912e-07
-9.36192e-07
2.83762e-07
-2.87929e-07
9.36905e-07
-2.34844e-07
-2.42225e-07
0.00026719
-1.24332e-06
0.000269231
-0.00026719
2.38597e-07
2.45985e-07
-2.39e-09
4.10793e-09
0.00109685
-2.81226e-07
1.24339e-06
2.79483e-07
9.37128e-07
-2.90807e-07
2.86669e-07
-9.36251e-07
-2.53548e-09
-0.00109633
4.17423e-09
-1.23961e-06
2.79433e-07
-2.81156e-07
-9.35987e-07
2.86614e-07
9.3688e-07
-2.90688e-07
1.2434e-06
0.00109685
-2.30865e-09
-0.00109685
4.10641e-09
-1.23976e-06
2.79485e-07
-2.81261e-07
-9.36268e-07
2.86704e-07
-2.908e-07
9.37132e-07
-0.000267203
2.40895e-07
2.46213e-07
1.27922e-06
1.24246e-06
-2.34696e-07
-2.42451e-07
0.000267208
-1.28294e-06
-1.24618e-06
0.000269252
-0.000267208
2.38437e-07
2.46268e-07
4.36596e-09
0.00109588
-2.868e-07
1.28287e-06
2.84903e-07
9.36874e-07
-2.87956e-07
-9.36173e-07
2.83746e-07
-1.28475e-06
-2.12428e-09
4.32375e-09
0.00109632
-2.89672e-07
1.28841e-06
2.87789e-07
9.42591e-07
-2.90907e-07
-9.41878e-07
2.86619e-07
0.00109588
-2.35771e-09
-0.00109588
4.24844e-09
-1.2792e-06
2.84974e-07
-2.86789e-07
-9.36141e-07
2.83831e-07
-2.87933e-07
9.36958e-07
1.28844e-06
0.00109632
-2.15473e-09
-0.00109632
4.39703e-09
-1.28476e-06
2.87826e-07
-2.89709e-07
-9.41883e-07
2.86678e-07
-2.9092e-07
9.42641e-07
-2.37421e-07
-2.39731e-07
0.000267229
-1.24886e-06
0.000269281
-0.000267229
2.41229e-07
2.43511e-07
4.1585e-09
0.00109694
-2.84083e-07
1.24613e-06
2.82311e-07
9.39833e-07
-2.90846e-07
-9.38959e-07
2.86716e-07
-1.27928e-06
-2.19397e-09
4.31744e-09
0.00109599
-2.89637e-07
1.28294e-06
2.87785e-07
9.39627e-07
-2.90793e-07
-9.38992e-07
2.86616e-07
0.00109694
-2.67126e-09
-0.00109694
4.11388e-09
-1.24246e-06
2.82361e-07
-2.84085e-07
-9.38913e-07
2.86819e-07
-2.90798e-07
9.39931e-07
1.28299e-06
0.00109599
-2.33695e-09
-0.00109599
4.2765e-09
-1.27927e-06
2.87829e-07
-2.89648e-07
-9.38935e-07
2.86687e-07
-2.90779e-07
9.39731e-07
-2.30246e-09
4.30689e-09
0.00109579
-2.83909e-07
1.27745e-06
2.82112e-07
9.36929e-07
-2.87945e-07
2.83771e-07
-9.36196e-07
-2.47202e-09
-0.00109667
4.19029e-09
-1.24511e-06
2.79465e-07
-2.81225e-07
-9.36174e-07
2.83944e-07
9.37075e-07
-2.87981e-07
1.2775e-06
0.00109578
-2.21138e-09
-0.00109579
4.30221e-09
-1.27377e-06
2.82156e-07
-2.83917e-07
-9.36209e-07
2.83816e-07
-2.87966e-07
9.36959e-07
-2.34856e-07
-2.42251e-07
0.00026719
-1.24336e-06
0.000269231
-0.000267189
2.38641e-07
2.4605e-07
-2.33684e-09
4.10444e-09
0.00109684
-2.81262e-07
1.24341e-06
2.79499e-07
9.37154e-07
-2.90818e-07
2.86713e-07
-9.3628e-07
-2.73693e-09
-0.00109633
4.14419e-09
-1.23963e-06
2.79479e-07
-2.81187e-07
-9.35928e-07
2.86734e-07
9.37001e-07
-2.90655e-07
1.24342e-06
0.00109684
-2.44343e-09
-0.00109684
4.21442e-09
-1.23978e-06
2.79515e-07
-2.81302e-07
-9.36241e-07
2.86801e-07
-2.90798e-07
9.37246e-07
-0.000267202
2.40927e-07
2.46287e-07
1.27921e-06
1.24248e-06
-2.34709e-07
-2.4243e-07
0.000267208
-1.28302e-06
-1.24624e-06
0.000269252
-0.000267207
2.38469e-07
2.46321e-07
4.29557e-09
0.00109588
-2.86824e-07
1.28294e-06
2.84963e-07
9.36955e-07
-2.87974e-07
-9.36174e-07
2.8382e-07
-1.28479e-06
-2.13029e-09
4.45529e-09
0.00109632
-2.89738e-07
1.28842e-06
2.87824e-07
9.42656e-07
-2.90938e-07
-9.41901e-07
2.86693e-07
0.00109588
-2.41671e-09
-0.00109588
4.07677e-09
-1.27922e-06
2.85046e-07
-2.86837e-07
-9.36203e-07
2.83871e-07
-2.88016e-07
9.3701e-07
1.28848e-06
0.00109632
-2.25334e-09
-0.00109632
4.43969e-09
-1.28483e-06
2.87847e-07
-2.89807e-07
-9.4193e-07
2.86737e-07
-2.90996e-07
9.42713e-07
-2.37432e-07
-2.39761e-07
0.000267228
-1.24897e-06
0.000269281
-0.000267228
2.41297e-07
2.43505e-07
4.18456e-09
0.00109694
-2.84122e-07
1.24616e-06
2.82344e-07
9.39941e-07
-2.90838e-07
-9.38927e-07
2.86809e-07
-1.27929e-06
-2.24466e-09
4.35596e-09
0.00109599
-2.89682e-07
1.28298e-06
2.87818e-07
9.39735e-07
-2.90819e-07
-9.38957e-07
2.86675e-07
0.00109694
-2.78135e-09
-0.00109694
4.03073e-09
-1.2425e-06
2.8242e-07
-2.84145e-07
-9.38948e-07
2.86873e-07
-2.90858e-07
9.39999e-07
1.28304e-06
0.00109599
-2.46026e-09
-0.00109599
4.27534e-09
-1.27933e-06
2.87881e-07
-2.89722e-07
-9.38993e-07
2.86728e-07
-2.9086e-07
9.3978e-07
-2.10816e-09
4.33848e-09
0.00109578
-2.83946e-07
1.27748e-06
2.82142e-07
9.36941e-07
-2.88009e-07
2.83801e-07
-9.36254e-07
-2.35125e-09
-0.00109667
4.06641e-09
-1.24511e-06
2.79546e-07
-2.81264e-07
-9.36278e-07
2.83955e-07
9.37071e-07
-2.88107e-07
1.27756e-06
0.00109578
-2.11542e-09
-0.00109578
4.27734e-09
-1.27381e-06
2.82205e-07
-2.83984e-07
-9.36306e-07
2.83812e-07
-2.88099e-07
9.36971e-07
-2.3486e-07
-2.42251e-07
0.000267189
-1.24346e-06
0.00026923
-0.000267188
2.38703e-07
2.46052e-07
-2.40358e-09
4.28024e-09
0.00109684
-2.81337e-07
1.24339e-06
2.79493e-07
9.37266e-07
-2.9081e-07
2.86815e-07
-9.36247e-07
-2.60945e-09
-0.00109632
3.96958e-09
-1.23964e-06
2.79559e-07
-2.81233e-07
-9.36049e-07
2.86729e-07
9.3699e-07
-2.90796e-07
1.24346e-06
0.00109684
-2.34654e-09
-0.00109684
4.28901e-09
-1.23986e-06
2.79527e-07
-2.81412e-07
-9.36324e-07
2.86807e-07
-2.90916e-07
9.37263e-07
-0.000267201
2.40917e-07
2.46307e-07
1.27922e-06
1.24251e-06
-2.34733e-07
-2.42438e-07
0.000267207
-1.28277e-06
-1.24601e-06
0.000269252
-0.000267207
2.38108e-07
2.45931e-07
4.1001e-09
0.00109588
-2.86855e-07
1.28303e-06
2.85041e-07
9.36979e-07
-2.88069e-07
-9.36252e-07
2.83844e-07
-1.2849e-06
-2.01715e-09
4.67609e-09
0.00109632
-2.8988e-07
1.2884e-06
2.87768e-07
9.42661e-07
-2.91052e-07
-9.41985e-07
2.8667e-07
0.00109588
-8.08961e-10
-0.00109588
4.62056e-09
-1.27953e-06
2.84763e-07
-2.87173e-07
-9.36822e-07
2.83197e-07
-2.8871e-07
9.36442e-07
1.28827e-06
0.00109632
-5.73817e-10
-0.00109632
4.80751e-09
-1.28515e-06
2.87551e-07
-2.90196e-07
-9.4259e-07
2.8599e-07
-2.91786e-07
9.42117e-07
-2.37462e-07
-2.39868e-07
0.000267228
-1.24873e-06
0.000269281
-0.000267228
2.40892e-07
2.4315e-07
4.1179e-09
0.00109694
-2.84171e-07
1.24623e-06
2.82405e-07
9.39989e-07
-2.90902e-07
-9.38969e-07
2.8686e-07
-1.27935e-06
-2.37148e-09
4.38262e-09
0.00109599
-2.89757e-07
1.28303e-06
2.8786e-07
9.39765e-07
-2.90904e-07
-9.39027e-07
2.86717e-07
0.00109694
-1.00609e-09
-0.00109694
4.4834e-09
-1.2428e-06
2.8214e-07
-2.84485e-07
-9.39599e-07
2.86176e-07
-2.91561e-07
9.39385e-07
1.28281e-06
0.00109599
-6.95846e-10
-0.00109599
4.71639e-09
-1.27964e-06
2.8758e-07
-2.90091e-07
-9.39627e-07
2.86062e-07
-2.9154e-07
9.392e-07
-1.61879e-09
4.43779e-09
0.00109578
-2.8407e-07
1.27749e-06
2.82123e-07
9.36823e-07
-2.8822e-07
2.83674e-07
-9.36442e-07
-9.00135e-10
-0.00109667
4.47565e-09
-1.24544e-06
2.79237e-07
-2.81651e-07
-9.36943e-07
2.83217e-07
9.36546e-07
-2.88928e-07
1.27736e-06
0.00109579
-6.02542e-10
-0.00109578
4.65321e-09
-1.27413e-06
2.81935e-07
-2.84381e-07
-9.36993e-07
2.83055e-07
-2.8895e-07
9.36421e-07
-2.34867e-07
-2.4231e-07
0.000267188
-1.2432e-06
0.000269231
-0.000267189
2.3829e-07
2.45706e-07
-2.08632e-09
4.52927e-09
0.00109684
-2.81497e-07
1.24337e-06
2.79438e-07
9.37191e-07
-2.90993e-07
2.86727e-07
-9.36405e-07
-1.1069e-09
-0.00109632
4.47878e-09
-1.23997e-06
2.79275e-07
-2.81578e-07
-9.36642e-07
2.86089e-07
9.36456e-07
-2.91449e-07
1.24328e-06
0.00109684
-7.11167e-10
-0.00109684
4.60295e-09
-1.24017e-06
2.79263e-07
-2.81808e-07
-9.37023e-07
2.86056e-07
-2.9173e-07
9.3665e-07
-0.000267202
2.40579e-07
2.45938e-07
1.27957e-06
1.24282e-06
-2.35154e-07
-2.42893e-07
0.000267208
-1.28289e-06
-1.24614e-06
0.000269254
-0.000267209
2.38249e-07
2.46067e-07
4.66796e-09
0.00109588
-2.87239e-07
1.28278e-06
2.84731e-07
9.36413e-07
-2.88921e-07
-9.3695e-07
2.83079e-07
-1.28511e-06
-5.92131e-10
4.56153e-09
0.00109632
-2.90139e-07
1.28835e-06
2.87644e-07
9.42121e-07
-2.91894e-07
-9.42676e-07
2.85975e-07
0.00109588
-1.56447e-09
-0.00109588
4.53796e-09
-1.27948e-06
2.84884e-07
-2.871e-07
-9.36619e-07
2.83487e-07
-2.88624e-07
9.36788e-07
1.2884e-06
0.00109632
-1.18965e-09
-0.00109632
4.60652e-09
-1.28503e-06
2.87759e-07
-2.89958e-07
-9.42424e-07
2.86303e-07
-2.91596e-07
9.42387e-07
-2.37882e-07
-2.40199e-07
0.000267229
-1.24879e-06
0.000269283
-0.00026723
2.40999e-07
2.43329e-07
4.46776e-09
0.00109694
-2.84533e-07
1.24603e-06
2.82127e-07
9.39357e-07
-2.91794e-07
-9.39728e-07
2.86043e-07
-1.27966e-06
-5.76183e-10
4.67424e-09
0.00109599
-2.90131e-07
1.28282e-06
2.87586e-07
9.39176e-07
-2.91764e-07
-9.39745e-07
2.85931e-07
0.00109694
-1.77636e-09
-0.00109694
4.35588e-09
-1.24273e-06
2.82284e-07
-2.84384e-07
-9.39395e-07
2.86468e-07
-2.91479e-07
9.39737e-07
1.28294e-06
0.001096
-1.53905e-09
-0.001096
4.56734e-09
-1.27958e-06
2.87736e-07
-2.89981e-07
-9.39426e-07
2.86353e-07
-2.91466e-07
9.39547e-07
-9.7917e-10
4.61437e-09
0.00109579
-2.84363e-07
1.27739e-06
2.81979e-07
9.36525e-07
-2.88961e-07
2.83134e-07
-9.3696e-07
-1.62029e-09