/*--------------------------------*- C++ -*----------------------------------*\
| =========                 |                                                 |
| \\      /  F ield         | OpenFOAM: The Open Source CFD Toolbox           |
|  \\    /   O peration     | Version:  v1912                                 |
|   \\  /    A nd           | Website:  www.openfoam.com                      |
|    \\/     M anipulation  |                                                 |
\*---------------------------------------------------------------------------*/
FoamFile
{
    version     2.0;
    format      ascii;
    class       volVectorField;
    location    "40";
    object      U;
}
// * * * * * * * * * * * * * * * * * * * * * * * * * * * * * * * * * * * * * //

dimensions      [0 1 -1 0 0 0 0];


internalField   nonuniform List<vector> 
57062
(
(-9.62638e-07 -9.96421e-07 0.104265)
(-7.36413e-07 1.09344e-06 0.104117)
(1.10751e-06 -7.33098e-07 0.104117)
(-4.96851e-05 -4.96915e-05 0.10392)
(-9.96816e-07 -1.00935e-06 0.104265)
(-7.04323e-07 1.09781e-06 0.104117)
(1.10301e-06 -7.20118e-07 0.104117)
(-4.9675e-05 -4.96914e-05 0.103919)
(-1.00983e-06 -1.01161e-06 0.104265)
(-6.94241e-07 1.09412e-06 0.104117)
(1.09727e-06 -6.98565e-07 0.104117)
(-4.96755e-05 -4.96874e-05 0.103919)
(-1.01188e-06 -1.01039e-06 0.104265)
(-6.9388e-07 1.10141e-06 0.104117)
(1.10223e-06 -6.92758e-07 0.104117)
(-4.96871e-05 -4.96911e-05 0.103919)
(-1.02158e-06 -1.01051e-06 0.104265)
(-7.11379e-07 1.10868e-06 0.104117)
(1.10569e-06 -6.83021e-07 0.104117)
(-4.97081e-05 -4.9695e-05 0.103919)
(-1.02415e-06 -1.00168e-06 0.104265)
(-7.43729e-07 1.10642e-06 0.104117)
(1.08376e-06 -6.89241e-07 0.104117)
(-4.97551e-05 -4.97313e-05 0.103919)
(-9.06662e-07 -9.08768e-07 0.104265)
(-7.98504e-07 1.13759e-06 0.104117)
(1.14816e-06 -8.23773e-07 0.104117)
(-4.98603e-05 -4.98617e-05 0.103919)
(-9.57085e-07 -9.56265e-07 0.104265)
(-7.82933e-07 1.15313e-06 0.104118)
(1.1361e-06 -7.65887e-07 0.104117)
(-4.98239e-05 -4.98379e-05 0.103919)
(-9.6161e-07 -9.8488e-07 0.104265)
(-6.7666e-07 1.07512e-06 0.104118)
(1.12473e-06 -7.12425e-07 0.104118)
(-4.97155e-05 -4.9745e-05 0.10392)
(-1.03527e-06 -1.03852e-06 0.104265)
(-6.75961e-07 1.06124e-06 0.104118)
(1.05834e-06 -6.61247e-07 0.104118)
(-4.96783e-05 -4.96894e-05 0.10392)
(-1.01311e-06 -1.00692e-06 0.104265)
(-7.12395e-07 1.08969e-06 0.104117)
(1.08414e-06 -6.99348e-07 0.104117)
(-4.97327e-05 -4.97296e-05 0.10392)
(-9.9831e-07 -9.9628e-07 0.104265)
(-7.20796e-07 1.1e-06 0.104117)
(1.10115e-06 -7.13874e-07 0.104117)
(-4.97461e-05 -4.97493e-05 0.10392)
(-9.96184e-07 -9.9618e-07 0.104265)
(-7.1961e-07 1.1006e-06 0.104117)
(1.10362e-06 -7.12162e-07 0.104117)
(-4.97435e-05 -4.97464e-05 0.10392)
(-9.95802e-07 -9.96908e-07 0.104265)
(-7.2093e-07 1.10023e-06 0.104117)
(1.10389e-06 -7.13348e-07 0.104117)
(-4.97444e-05 -4.97484e-05 0.10392)
(-9.95765e-07 -9.96604e-07 0.104265)
(-7.19149e-07 1.09999e-06 0.104117)
(1.10211e-06 -7.10938e-07 0.104117)
(-4.97414e-05 -4.97455e-05 0.10392)
(-9.95008e-07 -9.95658e-07 0.104265)
(-7.21721e-07 1.10147e-06 0.104117)
(1.10379e-06 -7.14189e-07 0.104117)
(-4.97443e-05 -4.97482e-05 0.10392)
(-9.9526e-07 -9.95672e-07 0.104265)
(-7.20943e-07 1.10119e-06 0.104117)
(1.10455e-06 -7.14533e-07 0.104117)
(-4.9743e-05 -4.97474e-05 0.10392)
(-9.94083e-07 -9.94093e-07 0.104265)
(-7.21172e-07 1.10112e-06 0.104117)
(1.10325e-06 -7.13929e-07 0.104117)
(-4.97451e-05 -4.975e-05 0.10392)
(-9.94834e-07 -9.95226e-07 0.104265)
(-7.19939e-07 1.1e-06 0.104117)
(1.10212e-06 -7.12855e-07 0.104117)
(-4.97439e-05 -4.97482e-05 0.10392)
(-1.00285e-06 -1.00328e-06 0.104265)
(-7.10122e-07 1.09066e-06 0.104118)
(1.09344e-06 -7.03073e-07 0.104117)
(-4.97435e-05 -4.97484e-05 0.10392)
(-1.01198e-06 -1.0128e-06 0.104265)
(-6.99637e-07 1.07957e-06 0.104118)
(1.08318e-06 -6.93138e-07 0.104118)
(-4.97169e-05 -4.97219e-05 0.10392)
(-1.02451e-06 -1.02483e-06 0.104266)
(-7.00596e-07 1.08058e-06 0.104118)
(1.08438e-06 -6.93709e-07 0.104118)
(-4.94946e-05 -4.95006e-05 0.10392)
(-9.95898e-07 -9.9702e-07 0.104266)
(-7.64236e-07 1.1147e-06 0.104118)
(1.11789e-06 -7.57579e-07 0.104118)
(-4.96298e-05 -4.96355e-05 0.103919)
(-9.41285e-07 -9.41307e-07 0.104267)
(-8.6541e-07 1.17814e-06 0.104118)
(1.18042e-06 -8.57955e-07 0.104118)
(-4.92006e-05 -4.92063e-05 0.103919)
(-8.97563e-07 -8.97601e-07 0.104267)
(-1.06617e-06 1.30863e-06 0.104118)
(1.31189e-06 -1.05913e-06 0.104118)
(-4.89319e-05 -4.89386e-05 0.103919)
(-8.09807e-07 -8.07093e-07 0.104268)
(-1.5395e-06 1.63336e-06 0.104117)
(1.63895e-06 -1.53332e-06 0.104117)
(-4.82335e-05 -4.82431e-05 0.103918)
(-7.07509e-07 -7.02776e-07 0.10427)
(-2.44953e-06 2.32464e-06 0.104116)
(2.3264e-06 -2.44257e-06 0.104116)
(-4.67608e-05 -4.67747e-05 0.103919)
(-6.77679e-07 -6.71518e-07 0.104274)
(-4.29804e-06 3.82648e-06 0.104113)
(3.8218e-06 -4.27594e-06 0.104113)
(-4.26375e-05 -4.26364e-05 0.10392)
(-4.66507e-06 -4.60586e-06 0.104275)
(-5.47972e-06 5.36139e-06 0.104107)
(5.33321e-06 -5.44818e-06 0.104107)
(-2.86209e-05 -2.86002e-05 0.103923)
(-4.42349e-05 -4.4098e-05 0.104223)
(3.93875e-05 -3.20326e-05 0.104085)
(-3.21186e-05 3.93847e-05 0.104085)
(4.13272e-05 4.13831e-05 0.103915)
(-5.25285e-05 -5.25341e-05 0.103931)
(1.14848e-06 8.19423e-07 0.104117)
(-1.13739e-06 7.97014e-07 0.104117)
(5.25237e-05 -5.24986e-05 0.103931)
(7.55586e-07 1.04273e-06 0.104117)
(7.58051e-07 -1.10979e-06 0.104117)
(-7.57725e-07 1.09087e-06 0.104118)
(-7.88953e-07 -1.11666e-06 0.104117)
(-5.24849e-05 5.25777e-05 0.103931)
(1.09492e-06 -7.463e-07 0.104117)
(-1.10204e-06 -7.68906e-07 0.104117)
(5.25026e-05 5.25346e-05 0.103931)
(4.97105e-05 4.96632e-05 0.10392)
(-5.25342e-05 -5.25088e-05 0.103931)
(1.14921e-06 8.05219e-07 0.104117)
(-1.13788e-06 7.80162e-07 0.104117)
(1.13459e-06 7.47421e-07 0.104117)
(-1.12714e-06 7.54659e-07 0.104117)
(-4.96947e-05 4.96522e-05 0.10392)
(5.25317e-05 -5.24991e-05 0.103931)
(7.47182e-07 1.07078e-06 0.104118)
(7.46881e-07 -1.11957e-06 0.104117)
(7.16712e-07 1.08526e-06 0.104117)
(7.46728e-07 -1.11949e-06 0.104117)
(-7.62387e-07 -1.1156e-06 0.104117)
(-7.07545e-07 1.09884e-06 0.104117)
(-7.33578e-07 -1.11771e-06 0.104117)
(4.96863e-05 -4.96897e-05 0.10392)
(-5.24951e-05 5.25408e-05 0.103931)
(-1.10088e-06 -7.45647e-07 0.104117)
(1.10294e-06 -7.20941e-07 0.104117)
(-1.08786e-06 -7.18374e-07 0.104117)
(5.25029e-05 5.2524e-05 0.103931)
(4.96922e-05 4.96677e-05 0.103919)
(-5.25483e-05 -5.25229e-05 0.103931)
(1.13352e-06 7.51296e-07 0.104117)
(-1.12552e-06 7.52552e-07 0.104117)
(1.12563e-06 7.30318e-07 0.104117)
(-1.12371e-06 7.41032e-07 0.104117)
(-4.96783e-05 4.96433e-05 0.103919)
(5.25472e-05 -5.25152e-05 0.103931)
(7.17724e-07 1.0877e-06 0.104117)
(7.4529e-07 -1.11977e-06 0.104117)
(7.03941e-07 1.08493e-06 0.104117)
(7.32806e-07 -1.11195e-06 0.104117)
(-7.3084e-07 -1.11556e-06 0.104117)
(-6.95383e-07 1.0943e-06 0.104117)
(-7.24328e-07 -1.11627e-06 0.104117)
(4.96659e-05 -4.97077e-05 0.103919)
(-5.25129e-05 5.2557e-05 0.103931)
(-1.08467e-06 -7.17373e-07 0.104117)
(1.0958e-06 -6.988e-07 0.104117)
(-1.08875e-06 -7.06348e-07 0.104117)
(5.25112e-05 5.25329e-05 0.103931)
(4.9681e-05 4.96577e-05 0.103919)
(-5.25529e-05 -5.25256e-05 0.103931)
(1.12367e-06 7.33179e-07 0.104117)
(-1.12417e-06 7.39877e-07 0.104117)
(1.12803e-06 7.22884e-07 0.104117)
(-1.13018e-06 7.41184e-07 0.104117)
(-4.96735e-05 4.96367e-05 0.103919)
(5.25529e-05 -5.25249e-05 0.10393)
(7.03323e-07 1.0882e-06 0.104117)
(7.31057e-07 -1.11373e-06 0.104117)
(7.01308e-07 1.094e-06 0.104117)
(7.28171e-07 -1.11604e-06 0.104117)
(-7.26779e-07 -1.11515e-06 0.104117)
(-6.98494e-07 1.10175e-06 0.104117)
(-7.33005e-07 -1.11883e-06 0.104117)
(4.96551e-05 -4.96964e-05 0.103919)
(-5.25242e-05 5.25617e-05 0.10393)
(-1.08946e-06 -7.0553e-07 0.104117)
(1.0977e-06 -6.93222e-07 0.104117)
(-1.09282e-06 -7.09303e-07 0.104117)
(5.25126e-05 5.25446e-05 0.10393)
(4.9693e-05 4.96728e-05 0.103919)
(-5.25867e-05 -5.25467e-05 0.10393)
(1.12948e-06 7.32152e-07 0.104117)
(-1.12953e-06 7.39603e-07 0.104117)
(1.11517e-06 7.1525e-07 0.104117)
(-1.13445e-06 7.35314e-07 0.104117)
(-4.96887e-05 4.96491e-05 0.103919)
(5.25756e-05 -5.25517e-05 0.10393)
(7.04948e-07 1.10021e-06 0.104117)
(7.3049e-07 -1.11987e-06 0.104117)
(6.80025e-07 1.09208e-06 0.104117)
(7.14665e-07 -1.11297e-06 0.104117)
(-7.32622e-07 -1.11454e-06 0.104117)
(-6.98119e-07 1.10207e-06 0.104117)
(-7.36079e-07 -1.11527e-06 0.104117)
(4.96626e-05 -4.97081e-05 0.103919)
(-5.25469e-05 5.25911e-05 0.10393)
(-1.09078e-06 -7.07374e-07 0.104117)
(1.09539e-06 -6.70874e-07 0.104117)
(-1.10142e-06 -6.93239e-07 0.104117)
(5.25294e-05 5.25784e-05 0.10393)
(4.969e-05 4.96832e-05 0.103919)
(-5.26169e-05 -5.25701e-05 0.10393)
(1.12481e-06 7.32337e-07 0.104117)
(-1.14488e-06 7.40951e-07 0.104117)
(1.09527e-06 7.05644e-07 0.104117)
(-1.13393e-06 7.17638e-07 0.104117)
(-4.97075e-05 4.96613e-05 0.103919)
(5.25906e-05 -5.25948e-05 0.10393)
(6.93343e-07 1.10475e-06 0.104117)
(7.25773e-07 -1.12487e-06 0.104117)
(6.68596e-07 1.08085e-06 0.104117)
(7.00848e-07 -1.10708e-06 0.104117)
(-7.51406e-07 -1.12244e-06 0.104117)
(-6.99589e-07 1.08405e-06 0.104117)
(-7.34436e-07 -1.10814e-06 0.104117)
(4.96689e-05 -4.97145e-05 0.103919)
(-5.25835e-05 5.26062e-05 0.10393)
(-1.11318e-06 -7.00002e-07 0.104117)
(1.07726e-06 -6.80347e-07 0.104117)
(-1.10745e-06 -6.94922e-07 0.104117)
(5.25444e-05 5.26032e-05 0.10393)
(4.97014e-05 4.97008e-05 0.103919)
(-5.25093e-05 -5.24704e-05 0.10393)
(1.10398e-06 7.21827e-07 0.104117)
(-1.17019e-06 7.39974e-07 0.104117)
(1.176e-06 8.52194e-07 0.104117)
(-1.19398e-06 8.644e-07 0.104117)
(-4.97503e-05 4.96759e-05 0.103919)
(5.24933e-05 -5.24792e-05 0.10393)
(6.77686e-07 1.09588e-06 0.104117)
(7.07768e-07 -1.12246e-06 0.104117)
(8.29781e-07 1.15636e-06 0.104117)
(8.60174e-07 -1.18438e-06 0.104117)
(-7.84265e-07 -1.13731e-06 0.104117)
(-8.28928e-07 1.1454e-06 0.104117)
(-8.74664e-07 -1.1618e-06 0.104117)
(4.96781e-05 -4.97433e-05 0.103919)
(-5.2469e-05 5.25108e-05 0.10393)
(-1.14256e-06 -7.1908e-07 0.104117)
(1.15338e-06 -8.17032e-07 0.104117)
(-1.15245e-06 -8.41361e-07 0.104117)
(5.24579e-05 5.25053e-05 0.10393)
(4.98536e-05 4.9841e-05 0.103919)
(-5.25521e-05 -5.25171e-05 0.103931)
(1.17071e-06 8.57701e-07 0.104117)
(-1.1613e-06 8.60386e-07 0.104117)
(1.149e-06 7.77601e-07 0.104117)
(-1.1641e-06 8.1764e-07 0.104117)
(-4.98617e-05 4.98184e-05 0.103919)
(5.25465e-05 -5.25071e-05 0.103931)
(8.36529e-07 1.14807e-06 0.104117)
(8.61963e-07 -1.1714e-06 0.104117)
(7.51715e-07 1.12277e-06 0.104117)
(7.76353e-07 -1.14666e-06 0.104117)
(-8.44259e-07 -1.14915e-06 0.104117)
(-7.71978e-07 1.14265e-06 0.104117)
(-8.05814e-07 -1.15499e-06 0.104117)
(4.98341e-05 -4.98829e-05 0.103919)
(-5.25327e-05 5.25515e-05 0.103931)
(-1.11598e-06 -8.33588e-07 0.104117)
(1.11604e-06 -7.60065e-07 0.104117)
(-1.11788e-06 -7.92134e-07 0.104117)
(5.25158e-05 5.25334e-05 0.103931)
(4.98105e-05 4.97969e-05 0.103919)
(-5.25165e-05 -5.25058e-05 0.103931)
(1.16928e-06 7.91842e-07 0.104117)
(-1.18348e-06 8.23375e-07 0.104117)
(1.18636e-06 7.73256e-07 0.104118)
(-1.10605e-06 7.78189e-07 0.104118)
(-4.98222e-05 4.97881e-05 0.103919)
(5.26027e-05 -5.25578e-05 0.103931)
(7.65313e-07 1.14314e-06 0.104118)
(7.86453e-07 -1.16609e-06 0.104117)
(7.72793e-07 1.13401e-06 0.104118)
(7.96429e-07 -1.15045e-06 0.104118)
(-8.211e-07 -1.16781e-06 0.104117)
(-7.0924e-07 1.09877e-06 0.104118)
(-7.44815e-07 -1.12104e-06 0.104118)
(4.97737e-05 -4.9841e-05 0.103919)
(-5.24977e-05 5.25522e-05 0.103931)
(-1.13931e-06 -7.98383e-07 0.104118)
(1.14897e-06 -7.40934e-07 0.104118)
(-1.07355e-06 -7.50506e-07 0.104118)
(5.25639e-05 5.2576e-05 0.103931)
(4.98018e-05 4.97623e-05 0.10392)
(-5.26393e-05 -5.26174e-05 0.103931)
(1.16169e-06 7.48565e-07 0.104118)
(-1.07613e-06 7.48883e-07 0.104118)
(1.09379e-06 6.82043e-07 0.104118)
(-1.07691e-06 7.09163e-07 0.104117)
(-4.9707e-05 4.96874e-05 0.10392)
(5.26503e-05 -5.26236e-05 0.103931)
(7.46348e-07 1.10805e-06 0.104118)
(7.68804e-07 -1.12313e-06 0.104118)
(6.70697e-07 1.05326e-06 0.104118)
(6.99529e-07 -1.07708e-06 0.104117)
(-7.123e-07 -1.09469e-06 0.104118)
(-6.62879e-07 1.05296e-06 0.104118)
(-6.93371e-07 -1.07258e-06 0.104117)
(4.97636e-05 -4.97943e-05 0.10392)
(-5.26155e-05 5.26583e-05 0.103931)
(-1.04055e-06 -7.23914e-07 0.104118)
(1.05859e-06 -6.55274e-07 0.104118)
(-1.03868e-06 -6.83819e-07 0.104118)
(5.26213e-05 5.26419e-05 0.103931)
(4.96778e-05 4.96545e-05 0.10392)
(-5.26052e-05 -5.25687e-05 0.103931)
(1.0918e-06 6.93821e-07 0.104117)
(-1.09486e-06 7.16297e-07 0.104117)
(1.10668e-06 7.21788e-07 0.104117)
(-1.12349e-06 7.42997e-07 0.104117)
(-4.96783e-05 4.96328e-05 0.10392)
(5.2593e-05 -5.2576e-05 0.103931)
(6.73284e-07 1.06044e-06 0.104118)
(7.00626e-07 -1.08456e-06 0.104117)
(6.96372e-07 1.08347e-06 0.104117)
(7.25116e-07 -1.10766e-06 0.104117)
(-7.11012e-07 -1.08038e-06 0.104117)
(-7.05671e-07 1.08202e-06 0.104118)
(-7.41077e-07 -1.1026e-06 0.104117)
(4.96465e-05 -4.96938e-05 0.10392)
(-5.25778e-05 5.26096e-05 0.103931)
(-1.05511e-06 -6.92848e-07 0.104118)
(1.07473e-06 -6.89182e-07 0.104117)
(-1.08714e-06 -7.14085e-07 0.104117)
(5.25566e-05 5.2597e-05 0.103931)
(4.97159e-05 4.97042e-05 0.10392)
(-5.25794e-05 -5.25449e-05 0.103931)
(1.11481e-06 7.37046e-07 0.104117)
(-1.13035e-06 7.51552e-07 0.104117)
(1.12573e-06 7.40049e-07 0.104117)
(-1.13515e-06 7.62051e-07 0.104117)
(-4.97281e-05 4.96782e-05 0.10392)
(5.25753e-05 -5.25533e-05 0.103931)
(7.07819e-07 1.09401e-06 0.104117)
(7.33593e-07 -1.11694e-06 0.104117)
(7.1648e-07 1.10011e-06 0.104117)
(7.47732e-07 -1.12809e-06 0.104117)
(-7.50541e-07 -1.10938e-06 0.104117)
(-7.21766e-07 1.09874e-06 0.104117)
(-7.57386e-07 -1.12067e-06 0.104117)
(4.96867e-05 -4.97424e-05 0.10392)
(-5.25491e-05 5.25809e-05 0.103931)
(-1.09285e-06 -7.24747e-07 0.104117)
(1.09776e-06 -7.12258e-07 0.104117)
(-1.10004e-06 -7.36195e-07 0.104117)
(5.25372e-05 5.25717e-05 0.103931)
(4.97374e-05 4.97233e-05 0.103919)
(-5.25747e-05 -5.2542e-05 0.103931)
(1.1285e-06 7.48105e-07 0.104117)
(-1.13538e-06 7.63143e-07 0.104117)
(1.13086e-06 7.41996e-07 0.104117)
(-1.13341e-06 7.63455e-07 0.104117)
(-4.97415e-05 4.9696e-05 0.10392)
(5.25771e-05 -5.25528e-05 0.103931)
(7.21577e-07 1.10433e-06 0.104117)
(7.48846e-07 -1.13061e-06 0.104117)
(7.20633e-07 1.10323e-06 0.104117)
(7.50677e-07 -1.12911e-06 0.104117)
(-7.58377e-07 -1.12011e-06 0.104117)
(-7.20202e-07 1.10023e-06 0.104117)
(-7.54153e-07 -1.11899e-06 0.104117)
(4.97107e-05 -4.97658e-05 0.10392)
(-5.25463e-05 5.25808e-05 0.103931)
(-1.09837e-06 -7.38188e-07 0.104117)
(1.10225e-06 -7.11245e-07 0.104117)
(-1.09683e-06 -7.3454e-07 0.104117)
(5.254e-05 5.25742e-05 0.103931)
(4.97407e-05 4.97249e-05 0.10392)
(-5.25743e-05 -5.25428e-05 0.103931)
(1.13151e-06 7.48029e-07 0.104117)
(-1.1339e-06 7.6341e-07 0.104117)
(1.13155e-06 7.40819e-07 0.104117)
(-1.1347e-06 7.63661e-07 0.104117)
(-4.97399e-05 4.96961e-05 0.10392)
(5.25755e-05 -5.25522e-05 0.103931)
(7.23385e-07 1.10561e-06 0.104117)
(7.50546e-07 -1.13058e-06 0.104117)
(7.21331e-07 1.10269e-06 0.104117)
(7.52151e-07 -1.13088e-06 0.104117)
(-7.56319e-07 -1.11825e-06 0.104117)
(-7.21961e-07 1.10075e-06 0.104117)
(-7.55721e-07 -1.1203e-06 0.104117)
(4.97124e-05 -4.97653e-05 0.10392)
(-5.2545e-05 5.25789e-05 0.103931)
(-1.09548e-06 -7.36494e-07 0.104117)
(1.10363e-06 -7.13094e-07 0.104117)
(-1.0974e-06 -7.35923e-07 0.104117)
(5.25399e-05 5.2573e-05 0.103931)
(4.97411e-05 4.97243e-05 0.10392)
(-5.25758e-05 -5.25435e-05 0.103931)
(1.13153e-06 7.47029e-07 0.104117)
(-1.13426e-06 7.62915e-07 0.104117)
(1.13052e-06 7.39976e-07 0.104117)
(-1.13204e-06 7.6173e-07 0.104117)
(-4.97409e-05 4.96963e-05 0.10392)
(5.25783e-05 -5.25544e-05 0.103931)
(7.23745e-07 1.10483e-06 0.104117)
(7.51045e-07 -1.13146e-06 0.104117)
(7.194e-07 1.10192e-06 0.104117)
(7.49627e-07 -1.12814e-06 0.104117)
(-7.58126e-07 -1.12026e-06 0.104117)
(-7.19297e-07 1.09903e-06 0.104117)
(-7.52474e-07 -1.11779e-06 0.104117)
(4.97134e-05 -4.97669e-05 0.10392)
(-5.25481e-05 5.25819e-05 0.103931)
(-1.09711e-06 -7.38618e-07 0.104117)
(1.10116e-06 -7.09898e-07 0.104117)
(-1.09471e-06 -7.32602e-07 0.104117)
(5.25431e-05 5.25759e-05 0.103931)
(4.97397e-05 4.97239e-05 0.10392)
(-5.25741e-05 -5.25412e-05 0.103931)
(1.13137e-06 7.47003e-07 0.104117)
(-1.13289e-06 7.62259e-07 0.104117)
(1.13199e-06 7.42609e-07 0.104117)
(-1.13379e-06 7.63612e-07 0.104117)
(-4.97387e-05 4.96948e-05 0.10392)
(5.25762e-05 -5.25524e-05 0.103931)
(7.2296e-07 1.10509e-06 0.104117)
(7.49467e-07 -1.12948e-06 0.104117)
(7.22197e-07 1.10399e-06 0.104117)
(7.5223e-07 -1.13092e-06 0.104117)
(-7.556e-07 -1.11811e-06 0.104117)
(-7.21726e-07 1.10069e-06 0.104117)
(-7.56074e-07 -1.12033e-06 0.104117)
(4.97104e-05 -4.97639e-05 0.10392)
(-5.25454e-05 5.25783e-05 0.103931)
(-1.09467e-06 -7.35855e-07 0.104117)
(1.10321e-06 -7.13316e-07 0.104117)
(-1.09682e-06 -7.36292e-07 0.104117)
(5.25397e-05 5.25729e-05 0.103931)
(4.9741e-05 4.97254e-05 0.10392)
(-5.25756e-05 -5.25436e-05 0.103931)
(1.132e-06 7.48763e-07 0.104117)
(-1.13494e-06 7.64262e-07 0.104117)
(1.13044e-06 7.40683e-07 0.104117)
(-1.13415e-06 7.63182e-07 0.104117)
(-4.9741e-05 4.96968e-05 0.10392)
(5.25765e-05 -5.25527e-05 0.103931)
(7.24446e-07 1.10613e-06 0.104117)
(7.5139e-07 -1.13212e-06 0.104117)
(7.20065e-07 1.10202e-06 0.104117)
(7.50915e-07 -1.13021e-06 0.104117)
(-7.57938e-07 -1.11955e-06 0.104117)
(-7.21037e-07 1.10062e-06 0.104117)
(-7.54837e-07 -1.11961e-06 0.104117)
(4.97135e-05 -4.9768e-05 0.10392)
(-5.25463e-05 5.25797e-05 0.103931)
(-1.0958e-06 -7.37921e-07 0.104117)
(1.1028e-06 -7.125e-07 0.104117)
(-1.0966e-06 -7.35012e-07 0.104117)
(5.25413e-05 5.2574e-05 0.103931)
(4.97402e-05 4.97237e-05 0.10392)
(-5.25728e-05 -5.25407e-05 0.103931)
(1.13197e-06 7.48497e-07 0.104117)
(-1.13468e-06 7.638e-07 0.104117)
(1.13291e-06 7.43496e-07 0.104117)
(-1.13435e-06 7.65255e-07 0.104117)
(-4.97404e-05 4.96962e-05 0.10392)
(5.25757e-05 -5.25516e-05 0.103931)
(7.24311e-07 1.1055e-06 0.104117)
(7.51661e-07 -1.13235e-06 0.104117)
(7.2228e-07 1.10437e-06 0.104117)
(7.51197e-07 -1.12975e-06 0.104117)
(-7.57131e-07 -1.11971e-06 0.104117)
(-7.22222e-07 1.10142e-06 0.104117)
(-7.56534e-07 -1.12198e-06 0.104117)
(4.97126e-05 -4.97664e-05 0.10392)
(-5.25461e-05 5.25797e-05 0.103931)
(-1.09617e-06 -7.38169e-07 0.104117)
(1.10273e-06 -7.12842e-07 0.104117)
(-1.09797e-06 -7.38148e-07 0.104117)
(5.25391e-05 5.25713e-05 0.103931)
(4.97424e-05 4.97261e-05 0.10392)
(-5.25728e-05 -5.25412e-05 0.103931)
(1.13295e-06 7.4965e-07 0.104117)
(-1.13427e-06 7.64791e-07 0.104117)
(1.13392e-06 7.44464e-07 0.104117)
(-1.13597e-06 7.66523e-07 0.104117)
(-4.97409e-05 4.96972e-05 0.10392)
(5.25754e-05 -5.25513e-05 0.103931)
(7.24685e-07 1.10643e-06 0.104117)
(7.50696e-07 -1.13135e-06 0.104117)
(7.2407e-07 1.10517e-06 0.104117)
(7.54461e-07 -1.13263e-06 0.104117)
(-7.57532e-07 -1.12063e-06 0.104117)
(-7.23597e-07 1.10256e-06 0.104117)
(-7.57968e-07 -1.12251e-06 0.104117)
(4.97124e-05 -4.97662e-05 0.10392)
(-5.25436e-05 5.25771e-05 0.103931)
(-1.09639e-06 -7.39398e-07 0.104117)
(1.10559e-06 -7.1647e-07 0.104117)
(-1.09824e-06 -7.39605e-07 0.104117)
(5.25391e-05 5.25718e-05 0.103931)
(4.97416e-05 4.97248e-05 0.10392)
(-5.25708e-05 -5.2539e-05 0.103931)
(1.13058e-06 7.47335e-07 0.104117)
(-1.13354e-06 7.63826e-07 0.104117)
(1.13792e-06 7.48878e-07 0.104117)
(-1.13973e-06 7.70556e-07 0.104117)
(-4.97409e-05 4.9697e-05 0.10392)
(5.25736e-05 -5.25498e-05 0.103931)
(7.23084e-07 1.10404e-06 0.104117)
(7.49591e-07 -1.13075e-06 0.104117)
(7.28318e-07 1.10917e-06 0.104117)
(7.58591e-07 -1.13535e-06 0.104117)
(-7.5617e-07 -1.11848e-06 0.104117)
(-7.28078e-07 1.10601e-06 0.104117)
(-7.65129e-07 -1.12945e-06 0.104117)
(4.97138e-05 -4.97674e-05 0.10392)
(-5.25427e-05 5.25762e-05 0.103931)
(-1.0943e-06 -7.37743e-07 0.104117)
(1.10878e-06 -7.20296e-07 0.104117)
(-1.10622e-06 -7.46362e-07 0.104117)
(5.25345e-05 5.25666e-05 0.103931)
(4.97372e-05 4.97208e-05 0.103919)
(-5.25605e-05 -5.25285e-05 0.103931)
(1.12246e-06 7.37824e-07 0.104117)
(-1.12445e-06 7.53228e-07 0.104117)
(1.14829e-06 7.60814e-07 0.104117)
(-1.14968e-06 7.82313e-07 0.104117)
(-4.97363e-05 4.96919e-05 0.10392)
(5.2563e-05 -5.25389e-05 0.103931)
(7.12965e-07 1.09585e-06 0.104117)
(7.40087e-07 -1.12267e-06 0.104117)
(7.40424e-07 1.11944e-06 0.104117)
(7.70635e-07 -1.14434e-06 0.104117)
(-7.49363e-07 -1.11281e-06 0.104117)
(-7.39411e-07 1.11651e-06 0.104117)
(-7.72179e-07 -1.13327e-06 0.104117)
(4.97091e-05 -4.97625e-05 0.10392)
(-5.25318e-05 5.25649e-05 0.103931)
(-1.08941e-06 -7.30702e-07 0.104117)
(1.11905e-06 -7.31568e-07 0.104117)
(-1.10948e-06 -7.53712e-07 0.104117)
(5.25307e-05 5.25632e-05 0.103931)
(4.97174e-05 4.97009e-05 0.103919)
(-5.23762e-05 -5.2344e-05 0.103931)
(1.11006e-06 7.26795e-07 0.104117)
(-1.11269e-06 7.42511e-07 0.104117)
(1.15315e-06 7.64765e-07 0.104117)
(-1.15482e-06 7.85194e-07 0.104117)
(-4.97169e-05 4.96725e-05 0.10392)
(5.23786e-05 -5.23555e-05 0.103931)
(7.02377e-07 1.08326e-06 0.104118)
(7.29896e-07 -1.11295e-06 0.104117)
(7.43634e-07 1.12467e-06 0.104117)
(7.72907e-07 -1.14883e-06 0.104117)
(-7.34427e-07 -1.09635e-06 0.104117)
(-7.42917e-07 1.12114e-06 0.104117)
(-7.78135e-07 -1.14269e-06 0.104117)
(4.96898e-05 -4.97426e-05 0.103919)
(-5.23487e-05 5.23791e-05 0.103931)
(-1.07237e-06 -7.17113e-07 0.104118)
(1.12264e-06 -7.36134e-07 0.104117)
(-1.11841e-06 -7.61207e-07 0.104117)
(5.23416e-05 5.23724e-05 0.103931)
(4.94926e-05 4.94761e-05 0.10392)
(-5.24075e-05 -5.23767e-05 0.103931)
(1.11297e-06 7.29438e-07 0.104118)
(-1.11407e-06 7.43115e-07 0.104118)
(1.1255e-06 7.13895e-07 0.104117)
(-1.12795e-06 7.35849e-07 0.104117)
(-4.94912e-05 4.94458e-05 0.10392)
(5.24088e-05 -5.23855e-05 0.103931)
(7.04723e-07 1.08616e-06 0.104118)
(7.31149e-07 -1.11486e-06 0.104118)
(6.93785e-07 1.09593e-06 0.104117)
(7.24267e-07 -1.12144e-06 0.104117)
(-7.3649e-07 -1.10061e-06 0.104118)
(-6.93565e-07 1.09458e-06 0.104117)
(-7.2779e-07 -1.11561e-06 0.104117)
(4.94618e-05 -4.95159e-05 0.10392)
(-5.23808e-05 5.2411e-05 0.103931)
(-1.07644e-06 -7.21169e-07 0.104118)
(1.09528e-06 -6.85288e-07 0.104117)
(-1.09113e-06 -7.09731e-07 0.104117)
(5.23728e-05 5.24054e-05 0.103931)
(4.96257e-05 4.96078e-05 0.103919)
(-5.21676e-05 -5.21358e-05 0.103931)
(1.14616e-06 7.9089e-07 0.104118)
(-1.14849e-06 8.05714e-07 0.104118)
(1.07e-06 6.17796e-07 0.104117)
(-1.07173e-06 6.40779e-07 0.104117)
(-4.96257e-05 4.958e-05 0.103919)
(5.21694e-05 -5.2148e-05 0.103931)
(7.66797e-07 1.11921e-06 0.104118)
(7.92201e-07 -1.14805e-06 0.104118)
(5.98667e-07 1.04135e-06 0.104117)
(6.28361e-07 -1.06692e-06 0.104117)
(-8.02075e-07 -1.13757e-06 0.104118)
(-5.99273e-07 1.03839e-06 0.104117)
(-6.31904e-07 -1.05885e-06 0.104117)
(4.95947e-05 -4.96481e-05 0.103919)
(-5.21423e-05 5.21713e-05 0.103931)
(-1.11318e-06 -7.85569e-07 0.104118)
(1.03967e-06 -5.91817e-07 0.104117)
(-1.03343e-06 -6.11986e-07 0.104117)
(5.2137e-05 5.21691e-05 0.103931)
(4.92029e-05 4.91855e-05 0.103919)
(-5.18245e-05 -5.17911e-05 0.103932)
(1.20863e-06 8.94574e-07 0.104118)
(-1.21086e-06 9.06728e-07 0.104118)
(9.60527e-07 4.56222e-07 0.104117)
(-9.6289e-07 4.79785e-07 0.104117)
(-4.92022e-05 4.91571e-05 0.103919)
(5.18266e-05 -5.18012e-05 0.103932)
(8.68285e-07 1.18191e-06 0.104118)
(8.9466e-07 -1.21022e-06 0.104118)
(4.35297e-07 9.31157e-07 0.104117)
(4.67928e-07 -9.57938e-07 0.104117)
(-9.0376e-07 -1.19569e-06 0.104118)
(-4.35255e-07 9.30391e-07 0.104117)
(-4.76055e-07 -9.52748e-07 0.104117)
(4.91718e-05 -4.92257e-05 0.103919)
(-5.17972e-05 5.18269e-05 0.103932)
(-1.17091e-06 -8.83008e-07 0.104118)
(9.30246e-07 -4.26912e-07 0.104117)
(-9.27955e-07 -4.49483e-07 0.104117)
(5.17874e-05 5.18195e-05 0.103932)
(4.89294e-05 4.89134e-05 0.103919)
(-5.12525e-05 -5.12183e-05 0.103932)
(1.33835e-06 1.09229e-06 0.104117)
(-1.34067e-06 1.10646e-06 0.104117)
(6.88297e-07 1.1943e-07 0.104118)
(-6.91252e-07 1.4057e-07 0.104118)
(-4.89288e-05 4.88867e-05 0.103919)
(5.12538e-05 -5.12292e-05 0.103932)
(1.07067e-06 1.31124e-06 0.104118)
(1.09476e-06 -1.3383e-06 0.104117)
(9.95912e-08 6.60754e-07 0.104118)
(1.34417e-07 -6.88531e-07 0.104118)
(-1.10597e-06 -1.32934e-06 0.104117)
(-1.04365e-07 6.60024e-07 0.104118)
(-1.38199e-07 -6.81355e-07 0.104118)
(4.89005e-05 -4.89506e-05 0.103919)
(-5.12251e-05 5.12543e-05 0.103932)
(-1.30356e-06 -1.08499e-06 0.104118)
(6.59826e-07 -9.47568e-08 0.104118)
(-6.5476e-07 -1.11274e-07 0.104118)
(5.12175e-05 5.12475e-05 0.103932)
(4.82322e-05 4.822e-05 0.103918)
(-5.01225e-05 -5.009e-05 0.103933)
(1.66402e-06 1.5655e-06 0.104117)
(-1.66739e-06 1.57859e-06 0.104117)
(7.39932e-08 -5.84498e-07 0.104119)
(-8.10088e-08 -5.66728e-07 0.104119)
(-4.82338e-05 4.81905e-05 0.103919)
(5.01277e-05 -5.01016e-05 0.103933)
(1.54473e-06 1.6384e-06 0.104117)
(1.56671e-06 -1.66756e-06 0.104117)
(-6.09487e-07 5.00367e-08 0.104119)
(-5.77212e-07 -7.15335e-08 0.104119)
(-1.5772e-06 -1.65471e-06 0.104117)
(6.09289e-07 4.80949e-08 0.104119)
(5.76125e-07 -6.75651e-08 0.104119)
(4.82069e-05 -4.82561e-05 0.103918)
(-5.01096e-05 5.01372e-05 0.103933)
(-1.63026e-06 -1.5568e-06 0.104117)
(4.20375e-08 6.16624e-07 0.104119)
(-4.56285e-08 6.07328e-07 0.104119)
(5.00965e-05 5.01198e-05 0.103933)
(4.67635e-05 4.67557e-05 0.103919)
(-4.68403e-05 -4.68023e-05 0.103932)
(2.35119e-06 2.47784e-06 0.104116)
(-2.35474e-06 2.48857e-06 0.104116)
(-1.28461e-06 -2.06108e-06 0.104122)
(1.27201e-06 -2.04386e-06 0.104122)
(-4.67646e-05 4.67285e-05 0.103919)
(4.68471e-05 -4.68105e-05 0.103932)
(2.4541e-06 2.32739e-06 0.104116)
(2.4745e-06 -2.3505e-06 0.104116)
(-2.09705e-06 -1.29665e-06 0.104122)
(-2.06072e-06 1.28066e-06 0.104122)
(-2.47751e-06 -2.33713e-06 0.104116)
(2.08645e-06 -1.30048e-06 0.104122)
(2.05218e-06 1.28178e-06 0.104122)
(4.67403e-05 -4.67804e-05 0.103919)
(-4.6817e-05 4.68404e-05 0.103932)
(-2.31827e-06 -2.45629e-06 0.104116)
(-1.31191e-06 2.10075e-06 0.104122)
(1.3024e-06 2.08672e-06 0.104122)
(4.67949e-05 4.6835e-05 0.103932)
(4.26241e-05 4.26268e-05 0.10392)
(-3.7064e-05 -3.70007e-05 0.10393)
(3.84424e-06 4.31171e-06 0.104113)
(-3.85698e-06 4.33909e-06 0.104113)
(-4.86458e-06 -6.10013e-06 0.104127)
(4.84181e-06 -6.08939e-06 0.104127)
(-4.26231e-05 4.2611e-05 0.10392)
(3.70295e-05 -3.70166e-05 0.10393)
(4.27892e-06 3.83053e-06 0.104113)
(4.31033e-06 -3.85005e-06 0.104113)
(-6.14508e-06 -4.85273e-06 0.104127)
(-6.12007e-06 4.85008e-06 0.104127)
(-4.32164e-06 -3.8302e-06 0.104113)
(6.12295e-06 -4.83659e-06 0.104127)
(6.11225e-06 4.85881e-06 0.104127)
(4.26216e-05 -4.26464e-05 0.10392)
(-3.70348e-05 3.70274e-05 0.10393)
(-3.81657e-06 -4.29729e-06 0.104113)
(-4.86623e-06 6.13062e-06 0.104127)
(4.85592e-06 6.13165e-06 0.104127)
(3.70118e-05 3.70389e-05 0.10393)
(2.8566e-05 2.86405e-05 0.103923)
(-3.71954e-05 -3.70048e-05 0.103917)
(5.33061e-06 5.51905e-06 0.104107)
(-5.35762e-06 5.52771e-06 0.104107)
(-3.16199e-05 -4.58534e-05 0.10412)
(3.1619e-05 -4.58705e-05 0.10412)
(-2.86051e-05 2.86278e-05 0.103923)
(3.71888e-05 -3.70248e-05 0.103918)
(5.42686e-06 5.35569e-06 0.104107)
(5.45123e-06 -5.33179e-06 0.104107)
(-4.60433e-05 -3.15364e-05 0.10412)
(-4.60011e-05 3.16275e-05 0.10412)
(-5.47171e-06 -5.32069e-06 0.104107)
(4.60142e-05 -3.15352e-05 0.10412)
(4.59796e-05 3.16312e-05 0.10412)
(2.85869e-05 -2.86226e-05 0.103923)
(-3.71201e-05 3.71885e-05 0.103918)
(-5.33224e-06 -5.46316e-06 0.104107)
(-3.16081e-05 4.60162e-05 0.10412)
(3.16173e-05 4.60296e-05 0.10412)
(3.71093e-05 3.71901e-05 0.103918)
(-4.13958e-05 -4.12153e-05 0.103915)
(-3.21427e-05 -3.92133e-05 0.104085)
(3.21339e-05 -3.92316e-05 0.104085)
(4.13867e-05 -4.12217e-05 0.103915)
(-3.94138e-05 -3.20352e-05 0.104085)
(-3.9369e-05 3.21347e-05 0.104085)
(4.42364e-05 -4.40953e-05 0.104223)
(-4.41883e-05 4.42455e-05 0.104223)
(4.42139e-05 4.42586e-05 0.104223)
(3.93603e-05 3.21429e-05 0.104085)
(-4.13278e-05 4.13844e-05 0.103915)
(3.21302e-05 3.94036e-05 0.104085)
(-9.37534e-07 -1.01222e-06 0.104265)
(9.68471e-07 -9.53608e-07 0.104265)
(-9.75129e-07 9.58276e-07 0.104265)
(9.70566e-07 9.41055e-07 0.104265)
(9.58323e-08 -1.03808e-05 0.0997236)
(6.0072e-07 7.40645e-06 0.0901433)
(-1.37501e-07 1.00995e-05 0.099694)
(-1.31294e-06 -6.89326e-06 0.0901794)
(-2.22724e-06 3.58772e-06 0.077382)
(2.30412e-06 -3.33137e-06 0.0774174)
(-1.04689e-05 7.66697e-08 0.0997224)
(7.3101e-06 5.66754e-07 0.0901427)
(1.01701e-05 -1.18609e-07 0.0996946)
(-6.89506e-06 -1.30258e-06 0.0901796)
(9.8163e-07 -9.63875e-07 0.104265)
(-9.74022e-07 9.73131e-07 0.104265)
(9.73211e-07 9.5849e-07 0.104265)
(-9.92689e-07 -1.00468e-06 0.104265)
(1.00789e-06 -9.89194e-07 0.104265)
(-9.87747e-07 9.93621e-07 0.104265)
(1.00349e-06 9.92411e-07 0.104265)
(1.96051e-05 1.80477e-07 0.103108)
(-1.83857e-05 4.61438e-06 0.100305)
(-9.23627e-07 -2.38588e-07 0.104216)
(-7.17172e-07 1.09531e-06 0.104118)
(-1.97952e-05 -1.96478e-07 0.103092)
(1.73759e-05 -5.14932e-06 0.100351)
(-9.03972e-07 -2.3424e-07 0.104216)
(3.509e-06 -2.19661e-06 0.0773787)
(-3.19882e-06 2.22104e-06 0.0774187)
(1.87542e-07 1.95837e-05 0.103108)
(-2.21583e-07 -9.03911e-07 0.104216)
(4.66003e-06 -1.84677e-05 0.100305)
(1.10682e-06 -7.24611e-07 0.104117)
(-2.03304e-07 -1.97996e-05 0.103092)
(-2.15779e-07 -9.03607e-07 0.104216)
(-5.18129e-06 1.74383e-05 0.10035)
(-5.45194e-06 -5.87125e-06 0.0960329)
(-5.8579e-06 -5.44628e-06 0.0960318)
(5.25014e-05 5.25294e-05 0.103931)
(4.96241e-06 5.72898e-06 0.0960735)
(5.7308e-06 4.95604e-06 0.0960719)
(1.01399e-07 -1.0414e-05 0.0997237)
(6.0113e-07 7.30975e-06 0.0901434)
(-1.31252e-07 1.00816e-05 0.0996941)
(-1.30536e-06 -6.98092e-06 0.0901796)
(-2.18035e-06 3.50761e-06 0.0773817)
(2.3359e-06 -3.40611e-06 0.0774176)
(-1.04992e-05 7.56324e-08 0.0997224)
(7.25645e-06 5.70722e-07 0.0901428)
(1.01653e-05 -1.29513e-07 0.0996947)
(-6.96102e-06 -1.28032e-06 0.0901798)
(1.01129e-06 -9.94962e-07 0.104265)
(-9.93338e-07 1.00056e-06 0.104265)
(1.00849e-06 9.98765e-07 0.104265)
(-1.00794e-06 -1.01137e-06 0.104265)
(1.01323e-06 -1.00274e-06 0.104265)
(-1.00181e-06 1.01221e-06 0.104265)
(1.00555e-06 1.00514e-06 0.104265)
(1.96708e-05 1.81749e-07 0.103108)
(-1.83347e-05 4.56981e-06 0.100305)
(-8.8942e-07 -2.26749e-07 0.104216)