/*--------------------------------*- C++ -*----------------------------------*\
| =========                 |                                                 |
| \\      /  F ield         | OpenFOAM: The Open Source CFD Toolbox           |
|  \\    /   O peration     | Version:  v1912                                 |
|   \\  /    A nd           | Website:  www.openfoam.com                      |
|    \\/     M anipulation  |                                                 |
\*---------------------------------------------------------------------------*/
FoamFile
{
    version     2.0;
    format      ascii;
    class       volScalarField;
    location    "80";
    object      p;
}
// * * * * * * * * * * * * * * * * * * * * * * * * * * * * * * * * * * * * * //

dimensions      [0 2 -2 0 0 0 0];


internalField   nonuniform List<scalar> 
171728
(
0.0036144
0.00361468
0.00361469
0.00361758
0.00355804
0.00355876
0.00355876
0.00356192
0.00350769
0.00350768
0.00350768
0.00351039
0.00345533
0.00345533
0.00345533
0.00345803
0.003404
0.003404
0.003404
0.00340666
0.00335403
0.00335404
0.00335404
0.00335666
0.0033055
0.00330553
0.00330554
0.0033081
0.00325827
0.00325831
0.00325832
0.00326086
0.00321215
0.00321219
0.00321219
0.0032147
0.00316692
0.00316697
0.00316697
0.00316945
0.00312241
0.00312246
0.00312246
0.00312492
0.0030785
0.00307855
0.00307855
0.00308098
0.00303511
0.00303515
0.00303515
0.00303755
0.0029922
0.00299224
0.00299224
0.00299463
0.0029498
0.00294983
0.00294982
0.00295221
0.00290811
0.00290808
0.00290808
0.00291043
0.00286766
0.00286761
0.00286761
0.00286989
0.0028288
0.00282872
0.00282872
0.00283093
0.00279107
0.00279098
0.00279098
0.00279316
0.00275393
0.00275386
0.00275386
0.00275603
0.00271706
0.002717
0.002717
0.00271915
0.0026803
0.00268023
0.00268023
0.00268239
0.00264357
0.0026435
0.0026435
0.00264566
0.00260684
0.00260677
0.00260677
0.00260893
0.00257011
0.00257004
0.00257004
0.0025722
0.00253337
0.00253331
0.00253331
0.00253546
0.00249664
0.00249657
0.00249657
0.00249873
0.0024599
0.00245983
0.00245983
0.00246199
0.00242316
0.00242309
0.00242309
0.00242525
0.00238641
0.00238635
0.00238635
0.0023885
0.00362762
0.00362789
0.00362789
0.00362761
0.00362789
0.00362789
0.00362861
0.00362861
0.00362861
0.00362861
0.00362789
0.00362789
0.00362762
0.0036279
0.00362789
0.00362762
0.00361758
0.00356863
0.00361468
0.00361468
0.00357062
0.00357062
0.00361758
0.00356863
0.00361468
0.00361468
0.00357061
0.00357062
0.00361468
0.00357061
0.00357062
0.00361758
0.00356863
0.00361469
0.00357061
0.00357061
0.00356863
0.00356192
0.00351753
0.00355876
0.00355876
0.0035208
0.0035208
0.00356192
0.00351753
0.00355876
0.00355876
0.0035208
0.0035208
0.00355876
0.0035208
0.0035208
0.00356192
0.00351753
0.00355875
0.0035208
0.0035208
0.00351753
0.00351039
0.00346512
0.00350768
0.00350768
0.00346834
0.00346834
0.00351039
0.00346512
0.00350768
0.00350768
0.00346834
0.00346834
0.00350768
0.00346834
0.00346834
0.00351039
0.00346512
0.00350768
0.00346834
0.00346834
0.00346512
0.00345804
0.00341356
0.00345533
0.00345533
0.00341672
0.00341672
0.00345804
0.00341356
0.00345533
0.00345533
0.00341672
0.00341672
0.00345533
0.00341672
0.00341672
0.00345804
0.00341356
0.00345533
0.00341672
0.00341672
0.00341356
0.00340666
0.00336333
0.003404
0.003404
0.00336639
0.00336639
0.00340666
0.00336333
0.003404
0.003404
0.00336639
0.00336639
0.003404
0.00336639
0.00336639
0.00340666
0.00336333
0.003404
0.00336639
0.00336639
0.00336333
0.00335666
0.00331457
0.00335404
0.00335404
0.00331753
0.00331753
0.00335666
0.00331457
0.00335404
0.00335404
0.00331753
0.00331753
0.00335404
0.00331753
0.00331753
0.00335666
0.00331457
0.00335404
0.00331753
0.00331753
0.00331457
0.0033081
0.00326714
0.00330553
0.00330553
0.00327
0.00327
0.0033081
0.00326714
0.00330553
0.00330553
0.00327001
0.00327
0.00330553
0.00327001
0.00327001
0.0033081
0.00326714
0.00330554
0.00327001
0.00327001
0.00326714
0.00326086
0.00322084
0.00325831
0.00325831
0.00322363
0.00322363
0.00326086
0.00322084
0.00325831
0.00325831
0.00322363
0.00322363
0.00325831
0.00322363
0.00322363
0.00326086
0.00322084
0.00325832
0.00322363
0.00322363
0.00322084
0.0032147
0.00317546
0.00321219
0.00321219
0.0031782
0.0031782
0.0032147
0.00317546
0.00321219
0.00321219
0.0031782
0.0031782
0.00321219
0.0031782
0.0031782
0.0032147
0.00317546
0.00321219
0.0031782
0.0031782
0.00317546
0.00316945
0.00313083
0.00316697
0.00316697
0.00313353
0.00313353
0.00316945
0.00313083
0.00316697
0.00316697
0.00313353
0.00313353
0.00316697
0.00313353
0.00313353
0.00316945
0.00313083
0.00316697
0.00313353
0.00313353
0.00313083
0.00312492
0.00308681
0.00312246
0.00312246
0.00308948
0.00308948
0.00312492
0.00308681
0.00312246
0.00312246
0.00308948
0.00308948
0.00312246
0.00308948
0.00308948
0.00312492
0.00308681
0.00312246
0.00308948
0.00308948
0.00308681
0.00308098
0.00304331
0.00307855
0.00307855
0.00304595
0.00304595
0.00308098
0.0030433
0.00307855
0.00307855
0.00304595
0.00304595
0.00307855
0.00304595
0.00304595
0.00308098
0.0030433
0.00307855
0.00304595
0.00304595
0.0030433
0.00303756
0.0030003
0.00303515
0.00303515
0.00300292
0.00300292
0.00303755
0.00300031
0.00303515
0.00303515
0.00300292
0.00300292
0.00303515
0.00300292
0.00300292
0.00303755
0.00300031
0.00303515
0.00300292
0.00300292
0.00300031
0.00299463
0.00295782
0.00299224
0.00299224
0.00296038
0.00296038
0.00299463
0.00295782
0.00299224
0.00299224
0.00296038
0.00296038
0.00299224
0.00296038
0.00296038
0.00299463
0.00295782
0.00299224
0.00296038
0.00296038
0.00295782
0.00295221
0.00291593
0.00294983
0.00294982
0.00291843
0.00291843
0.00295221
0.00291593
0.00294982
0.00294982
0.00291843
0.00291843
0.00294983
0.00291843
0.00291843
0.00295221
0.00291593
0.00294983
0.00291843
0.00291843
0.00291593
0.00291043
0.00287518
0.00290808
0.00290808
0.00287757
0.00287757
0.00291043
0.00287518
0.00290808
0.00290808
0.00287757
0.00287757
0.00290808
0.00287757
0.00287757
0.00291043
0.00287518
0.00290808
0.00287757
0.00287757
0.00287518
0.00286989
0.00283604
0.00286761
0.00286761
0.00283831
0.00283831
0.00286989
0.00283604
0.00286761
0.00286761
0.00283831
0.00283831
0.00286761
0.00283831
0.00283831
0.00286989
0.00283604
0.00286761
0.00283831
0.00283831
0.00283604
0.00283093
0.00279815
0.00282872
0.00282872
0.00280034
0.00280034
0.00283093
0.00279815
0.00282872
0.00282872
0.00280034
0.00280034
0.00282872
0.00280034
0.00280034
0.00283093
0.00279815
0.00282872
0.00280034
0.00280034
0.00279815
0.00279316
0.00276095
0.00279098
0.00279098
0.00276311
0.00276311
0.00279316
0.00276095
0.00279098
0.00279098
0.00276311
0.00276311
0.00279098
0.00276311
0.00276311
0.00279316
0.00276095
0.00279098
0.00276311
0.00276311
0.00276095
0.00275603
0.00272406
0.00275386
0.00275386
0.0027262
0.0027262
0.00275603
0.00272406
0.00275386
0.00275386
0.0027262
0.0027262
0.00275386
0.0027262
0.0027262
0.00275603
0.00272406
0.00275386
0.0027262
0.0027262
0.00272406
0.00271915
0.00268728
0.002717
0.002717
0.00268942
0.00268942
0.00271915
0.00268729
0.002717
0.002717
0.00268942
0.00268942
0.002717
0.00268942
0.00268942
0.00271915
0.00268729
0.002717
0.00268942
0.00268942
0.00268728
0.00268239
0.00265055
0.00268023
0.00268023
0.00265268
0.00265268
0.00268239
0.00265055
0.00268023
0.00268023
0.00265268
0.00265268
0.00268023
0.00265268
0.00265268
0.00268239
0.00265055
0.00268023
0.00265268
0.00265268
0.00265055
0.00264566
0.00261382
0.0026435
0.0026435
0.00261596
0.00261595
0.00264566
0.00261382
0.0026435
0.0026435
0.00261595
0.00261596
0.0026435
0.00261595
0.00261596
0.00264566
0.00261382
0.0026435
0.00261595
0.00261596
0.00261382
0.00260893
0.00257709
0.00260677
0.00260677
0.00257923
0.00257923
0.00260893
0.00257709
0.00260677
0.00260677
0.00257922
0.00257923
0.00260677
0.00257923
0.00257923
0.00260893
0.00257709
0.00260677
0.00257923
0.00257923
0.00257709
0.0025722
0.00254036
0.00257004
0.00257004
0.00254249
0.00254249
0.0025722
0.00254036
0.00257004
0.00257004
0.00254249
0.00254249
0.00257004
0.00254249
0.00254249
0.0025722
0.00254036
0.00257004
0.00254249
0.00254249
0.00254036
0.00253546
0.00250362
0.00253331
0.00253331
0.00250576
0.00250576
0.00253546
0.00250362
0.00253331
0.00253331
0.00250576
0.00250576
0.00253331
0.00250576
0.00250576
0.00253546
0.00250362
0.00253331
0.00250576
0.00250576
0.00250362
0.00249873
0.00246688
0.00249657
0.00249657
0.00246902
0.00246902
0.00249873
0.00246688
0.00249657
0.00249657
0.00246902
0.00246902
0.00249657
0.00246902
0.00246902
0.00249873
0.00246688
0.00249657
0.00246902
0.00246902
0.00246688
0.00246199
0.00243014
0.00245983
0.00245983
0.00243228
0.00243228
0.00246199
0.00243014
0.00245983
0.00245983
0.00243228
0.00243228
0.00245983
0.00243228
0.00243228
0.00246199
0.00243014
0.00245983
0.00243228
0.00243228
0.00243014
0.00242525
0.0023934
0.00242309
0.00242309
0.00239553
0.00239553
0.00242525
0.0023934
0.00242309
0.00242309
0.00239553
0.00239553
0.00242309
0.00239553
0.00239553
0.00242525
0.0023934
0.00242309
0.00239553
0.00239553
0.0023934
0.0023885
0.00238635
0.00238635
0.0023885
0.00238635
0.00238635
0.00238635
0.0023885
0.00238635
0.00363585
0.00364542
0.00364032
0.00364033
0.00366257
0.00364938
0.00367761
0.00364351
0.00366257
0.00364938
0.00364351
0.00367762
0.00365395
0.00368137
0.00368137
0.00359087
0.00361651
0.00361902
0.00358071
0.00359506
0.00358122
0.00359085
0.0036165
0.00361901
0.00358069
0.0036144
0.0036144
0.0036144
0.00357005
0.00357005
0.00357005
0.00357005
0.00358899
0.00361597
0.00361458
0.00359773
0.00361844
0.00358563
0.00359854
0.00359514
0.00358123
0.00358899
0.00361458
0.00361598
0.00359774
0.00361843
0.00359854
0.00358563
0.00361959
0.00361958
0.00359189
0.00358629
0.00358629
0.00354448
0.00356451
0.00356524
0.00354298
0.00356325
0.00354248
0.00354448
0.00356451
0.00356524
0.00354298
0.00355804
0.00355804
0.00355803
0.00352084
0.00352084
0.00352084
0.00352084
0.00354306
0.00356405
0.00355846
0.00354652
0.00356272
0.00354333
0.00354635
0.00356325
0.00354247
0.00354307
0.00355846
0.00356405
0.00354651
0.00356272
0.00354635
0.00354333
0.00356533
0.00356533
0.0035434
0.00354389
0.00354389
0.00349212
0.0035109
0.00351194
0.00349111
0.00351052
0.00349081
0.00349212
0.0035109
0.00351194
0.00349111
0.00350769
0.00350769
0.00350769
0.00346833
0.00346833
0.00346833
0.00346833
0.00349122
0.00351118
0.00350767
0.00349454
0.00351077
0.00349148
0.00349451
0.00351052
0.00349081
0.00349122
0.00350767
0.00351118
0.00349454
0.00351076
0.00349451
0.00349148
0.0035115
0.0035115
0.00349132
0.00349162
0.00349162
0.00343955
0.00345821
0.00345906
0.00343879
0.003458
0.00343861
0.00343955
0.00345821
0.00345906
0.00343879
0.00345533
0.00345533
0.00345533
0.00341672
0.00341672
0.00341672
0.00341672
0.00343905
0.00345856
0.00345531
0.00344239
0.00345836
0.00343918
0.00344237
0.003458
0.0034386
0.00343905
0.00345531
0.00345856
0.00344239
0.00345836
0.00344237
0.00343918
0.00345863
0.00345863
0.00343919
0.00343915
0.00343915
0.00338836
0.00340673
0.00340734
0.00338783
0.00340657
0.00338767
0.00338836
0.00340673
0.00340734
0.00338783
0.003404
0.003404
0.003404
0.00336638
0.00336638
0.00336638
0.00336638
0.00338809
0.00340705
0.00340398
0.00339137
0.00340692
0.00338818
0.00339135
0.00340657
0.00338767
0.00338809
0.00340398
0.00340705
0.00339137
0.00340692
0.00339135
0.00338818
0.00340704
0.00340704
0.00338826
0.0033881
0.0033881
0.00333873
0.00335668
0.00335712
0.00333834
0.00335656
0.0033382
0.00333873
0.00335668
0.00335712
0.00333834
0.00335403
0.00335403
0.00335403
0.00331751
0.00331751
0.00331751
0.00331751
0.0033386
0.00335697
0.00335401
0.00334178
0.00335687
0.00333866
0.00334175
0.00335655
0.00333821
0.0033386
0.00335401
0.00335697
0.00334178
0.00335687
0.00334175
0.00333866
0.00335694
0.00335694
0.00333877
0.00333857
0.00333857
0.00329056
0.00330811
0.00330842
0.00329029
0.003308
0.00329017
0.00329056
0.00330811
0.00330842
0.00329029
0.0033055
0.00330551
0.00330551
0.00326997
0.00326997
0.00326997
0.00326997
0.00329053
0.00330837
0.00330549
0.00329362
0.00330829
0.00329059
0.00329357
0.003308
0.00329017
0.00329053
0.0033055
0.00330837
0.00329364
0.00330829
0.00329358
0.00329059
0.00330834
0.00330834
0.00329069
0.0032905
0.0032905
0.00324367
0.00326086
0.00326108
0.00324348
0.00326076
0.00324337
0.00324367
0.00326086
0.00326108
0.00324348
0.00325827
0.00325827
0.00325827
0.00322359
0.00322359
0.00322359
0.00322359
0.00324371
0.00326109
0.00325827
0.00324669
0.00326102
0.00324376
0.00324665
0.00326076
0.00324337
0.00324371
0.00325827
0.00326109
0.00324669
0.00326102
0.00324665
0.00324376
0.00326107
0.00326108
0.00324386
0.00324367
0.00324367
0.00319784
0.00321471
0.00321488
0.00319768
0.00321462
0.00319759
0.00319784
0.00321471
0.00321488
0.00319768
0.00321215
0.00321215
0.00321215
0.00317815
0.00317815
0.00317815
0.00317815
0.00319791
0.00321493
0.00321215
0.00320081
0.00321486
0.00319796
0.00320077
0.00321462
0.00319759
0.00319791
0.00321215
0.00321493
0.00320081
0.00321486
0.00320077
0.00319796
0.00321491
0.00321491
0.00319805
0.00319787
0.00319787
0.00315286
0.00316946
0.0031696
0.00315272
0.00316937
0.00315263
0.00315285
0.00316946
0.0031696
0.00315272
0.00316692
0.00316692
0.00316692
0.00313348
0.00313348
0.00313348
0.00313348
0.00315295
0.00316967
0.00316693
0.00315578
0.00316961
0.00315299
0.00315574
0.00316937
0.00315263
0.00315295
0.00316693
0.00316967
0.00315578
0.00316961
0.00315574
0.00315299
0.00316964
0.00316964
0.00315306
0.00315289
0.00315289
0.00310855
0.00312493
0.00312506
0.00310843
0.00312485
0.00310834
0.00310855
0.00312493
0.00312506
0.00310843
0.00312241
0.00312241
0.00312241
0.00308943
0.00308943
0.00308943
0.00308943
0.00310867
0.00312513
0.00312242
0.00311143
0.00312508
0.00310869
0.00311139
0.00312485
0.00310834
0.00310867
0.00312242
0.00312513
0.00311143
0.00312508
0.00311139
0.00310869
0.0031251
0.0031251
0.00310875
0.00310859
0.00310859
0.00306481
0.00308099
0.00308112
0.00306469
0.00308091
0.0030646
0.00306481
0.00308099
0.00308112
0.00306469
0.0030785
0.0030785
0.0030785
0.00304591
0.00304591
0.00304591
0.00304591
0.00306494
0.00308119
0.00307851
0.00306765
0.00308116
0.00306495
0.00306762
0.00308091
0.0030646
0.00306494
0.00307851
0.00308119
0.00306765
0.00308116
0.00306762
0.00306495
0.00308115
0.00308115
0.003065
0.00306483
0.00306483
0.00302157
0.00303757
0.00303769
0.00302144
0.00303749
0.00302136
0.00302157
0.00303757
0.00303769
0.00302144
0.00303511
0.00303511
0.00303511
0.00300288
0.00300288
0.00300288
0.00300288
0.00302172
0.00303775
0.00303512
0.00302438
0.00303775
0.0030217
0.00302435
0.00303749
0.00302136
0.00302172
0.00303512
0.00303775
0.00302438
0.00303775
0.00302435
0.0030217
0.00303771
0.00303771
0.00302174
0.00302157
0.00302157
0.00297879
0.00299461
0.00299474
0.00297866
0.00299454
0.00297859
0.00297879
0.00299461
0.00299474
0.00297866
0.0029922
0.0029922
0.0029922
0.00296035
0.00296035
0.00296035
0.00296035
0.00297897
0.00299479
0.00299221
0.00298159
0.00299482
0.00297892
0.00298156
0.00299454
0.0029786
0.00297897
0.00299221
0.00299479
0.0029816
0.00299482
0.00298156
0.00297892
0.00299474
0.00299474
0.002979
0.00297878
0.00297878
0.00293655
0.00295215
0.00295228
0.00293642
0.0029521
0.00293638
0.00293655
0.00295215
0.00295228
0.00293642
0.0029498
0.0029498
0.0029498
0.00291845
0.00291845
0.00291845
0.00291845
0.00293675
0.00295233
0.00294982
0.00293931
0.00295238
0.00293667
0.00293931
0.0029521
0.00293637
0.00293675
0.00294982
0.00295233
0.00293931
0.00295238
0.00293931
0.00293667
0.00295229
0.00295228
0.00293678
0.00293653
0.00293653
0.00289503
0.00291033
0.00291043
0.00289494
0.00291027
0.0028949
0.00289503
0.00291033
0.00291043
0.00289494
0.00290811
0.00290811
0.00290811
0.00287762
0.00287762
0.00287762
0.00287762
0.00289529
0.00291048
0.00290811
0.00289782
0.00291058
0.00289516
0.00289786
0.00291028
0.0028949
0.00289529
0.00290811
0.00291048
0.00289782
0.00291058
0.00289786
0.00289516
0.00291042
0.00291042
0.00289536
0.00289502
0.00289502
0.00285513
0.00286977
0.00286982
0.00285507
0.00286975
0.00285506
0.00285513
0.00286977
0.00286983
0.00285507
0.00286766
0.00286766
0.00286766
0.00283839
0.00283839
0.00283839
0.00283839
0.00285533
0.00286986
0.00286766
0.00285774
0.00286997
0.00285522
0.0028578
0.00286975
0.00285506
0.00285533
0.00286766
0.00286986
0.00285774
0.00286996
0.0028578
0.00285522
0.00286983
0.00286983
0.00285542
0.0028551
0.0028551
0.00281679
0.00283096
0.00283099
0.00281676
0.00283095
0.00281675
0.00281679
0.00283096
0.002831
0.00281676
0.0028288
0.0028288
0.0028288
0.00280043
0.00280043
0.00280043
0.00280043
0.0028169
0.00283097
0.00282876
0.0028192
0.00283103
0.00281684
0.00281924
0.00283095
0.00281675
0.0028169
0.00282876
0.00283097
0.0028192
0.00283103
0.00281924
0.00281684
0.00283097
0.00283097
0.00281697
0.00281676
0.00281676
0.00277934
0.00279326
0.00279327
0.00277932
0.00279325
0.00277932
0.00277934
0.00279325
0.00279327
0.00277932
0.00279107
0.00279107
0.00279107
0.00276318
0.00276318
0.00276318
0.00276318
0.00277942
0.00279323
0.00279102
0.00278166
0.00279326
0.00277937
0.00278169
0.00279325
0.00277932
0.00277942
0.00279102
0.00279323
0.00278166
0.00279326
0.00278169
0.00277937
0.00279326
0.00279326
0.00277949
0.00277932
0.00277932
0.00274234
0.00275614
0.00275614
0.00274234
0.00275613
0.00274234
0.00274234
0.00275614
0.00275614
0.00274234
0.00275393
0.00275393
0.00275393
0.00272627
0.00272627
0.00272627
0.00272627
0.0027424
0.0027561
0.00275388
0.00274463
0.00275612
0.00274238
0.00274465
0.00275614
0.00274234
0.0027424
0.00275388
0.0027561
0.00274463
0.00275612
0.00274465
0.00274238
0.00275614
0.00275614
0.00274248
0.00274233
0.00274233
0.00270554
0.00271929
0.00271929
0.00270554
0.00271928
0.00270554
0.00270554
0.00271929
0.00271929
0.00270554
0.00271707
0.00271707
0.00271707
0.00268949
0.00268949
0.00268949
0.00268949
0.00270559
0.00271925
0.00271702
0.0027078
0.00271925
0.00270558
0.00270782
0.00271929
0.00270554
0.00270559
0.00271702
0.00271925
0.0027078
0.00271925
0.00270782
0.00270558
0.0027193
0.0027193
0.00270566
0.00270554
0.00270554
0.0026688
0.00268254
0.00268254
0.0026688
0.00268254
0.0026688
0.0026688
0.00268254
0.00268254
0.0026688
0.0026803
0.0026803
0.0026803
0.00265275
0.00265275
0.00265275
0.00265275
0.00266885
0.0026825
0.00268025
0.00267105
0.0026825
0.00266884
0.00267107
0.00268254
0.0026688
0.00266885
0.00268025
0.0026825
0.00267105
0.0026825
0.00267107
0.00266884
0.00268254
0.00268254
0.00266892
0.00266879
0.00266879
0.00263207
0.00264581
0.00264581
0.00263207
0.00264581
0.00263207
0.00263207
0.00264581
0.00264581
0.00263207
0.00264357
0.00264357
0.00264357
0.00261602
0.00261602
0.00261602
0.00261602
0.00263212
0.00264577
0.00264352
0.00263432
0.00264577
0.00263211
0.00263434
0.00264581
0.00263207
0.00263212
0.00264352
0.00264577
0.00263432
0.00264577
0.00263434
0.00263211
0.00264581
0.00264581
0.00263219
0.00263207
0.00263207
0.00259535
0.00260908
0.00260908
0.00259534
0.00260908
0.00259534
0.00259535
0.00260908
0.00260908
0.00259534
0.00260684
0.00260684
0.00260684
0.00257929
0.00257929
0.00257929
0.00257929
0.00259539
0.00260904
0.00260679
0.00259759
0.00260904
0.00259538
0.00259761
0.00260908
0.00259534
0.00259539
0.00260679
0.00260904
0.00259759
0.00260904
0.00259761
0.00259538
0.00260908
0.00260908
0.00259546
0.00259534
0.00259534
0.00255861
0.00257235
0.00257235
0.00255861
0.00257235
0.00255861
0.00255861
0.00257235
0.00257235
0.00255861
0.00257011
0.00257011
0.00257011
0.00254256
0.00254256
0.00254256
0.00254256
0.00255866
0.00257231
0.00257006
0.00256086
0.00257231
0.00255865
0.00256087
0.00257235
0.00255861
0.00255866
0.00257006
0.00257231
0.00256086
0.00257231
0.00256087
0.00255865
0.00257235
0.00257235
0.00255873
0.00255861
0.00255861
0.00252188
0.00253561
0.00253562
0.00252188
0.00253562
0.00252188
0.00252188
0.00253561
0.00253562
0.00252188
0.00253337
0.00253337
0.00253337
0.00250582
0.00250582
0.00250582
0.00250582
0.00252193
0.00253557
0.00253332
0.00252412
0.00253557
0.00252191
0.00252414
0.00253562
0.00252188
0.00252193
0.00253332
0.00253557
0.00252412
0.00253557
0.00252414
0.00252191
0.00253562
0.00253562
0.00252199
0.00252187
0.00252187
0.00248514
0.00249888
0.00249888
0.00248514
0.00249888
0.00248514
0.00248514
0.00249888
0.00249888
0.00248514
0.00249664
0.00249664
0.00249664
0.00246908
0.00246908
0.00246908
0.00246908
0.00248519
0.00249884
0.00249659
0.00248739
0.00249884
0.00248518
0.0024874
0.00249888
0.00248514
0.00248519
0.00249659
0.00249884
0.00248739
0.00249884
0.0024874
0.00248518
0.00249888
0.00249888
0.00248525
0.00248513
0.00248513
0.0024484
0.00246214
0.00246214
0.0024484
0.00246214
0.0024484
0.0024484
0.00246214
0.00246214
0.0024484
0.0024599
0.0024599
0.0024599
0.00243234
0.00243234
0.00243234
0.00243234
0.00244845
0.0024621
0.00245985
0.00245065
0.0024621
0.00244844
0.00245066
0.00246214
0.0024484
0.00244845
0.00245985
0.0024621
0.00245065
0.0024621
0.00245066
0.00244844
0.00246214
0.00246215
0.00244851
0.0024484
0.0024484
0.00241166
0.0024254
0.0024254
0.00241166
0.0024254
0.00241166
0.00241166
0.0024254
0.0024254
0.00241166
0.00242316
0.00242316
0.00242316
0.0023956
0.0023956
0.0023956
0.0023956
0.00241171
0.00242536
0.00242311
0.00241391
0.00242536
0.00241169
0.00241392
0.0024254
0.00241166
0.00241171
0.00242311
0.00242536
0.00241391
0.00242536
0.00241392
0.00241169
0.0024254
0.0024254
0.00241177
0.00241165
0.00241165
0.00237492
0.00238866
0.00238866
0.00237492
0.00238866
0.00237492
0.00237492
0.00238866
0.00238866
0.00237492
0.00238641
0.00238641
0.00238641
0.00237496
0.00238862
0.00238636
0.00237716
0.00238861
0.00237495
0.00237718
0.00238866
0.00237491
0.00237496
0.00238636
0.00238862
0.00237716
0.00238861
0.00237718
0.00237495
0.00238866
0.00238866
0.00237503
0.00237491
0.00237491
0.00365395
0.00368136
0.00368137
0.00364661
0.00368045
0.00364657
0.00368046
0.00365074
0.00363676
0.00363677
0.00367613
0.00367614
0.00366256
0.00364938
0.00367761
0.00364351
0.00366256
0.00364938
0.00367761
0.0036435
0.00366675
0.00364072
0.00367764
0.00363234
0.00366675
0.0036407
0.00367764
0.00363235
0.00365822
0.00364685
0.00363141
0.00362992
0.00367289
0.00364192
0.00363063
0.00365822
0.00364685
0.00363141
0.00362992
0.00367289
0.00364192
0.00363063
0.00365394
0.00368136
0.00368136
0.00364657
0.00368045
0.00365074
0.00363675
0.00363677
0.00367613
0.00367613
0.00364658
0.00368045
0.00366257
0.00364938
0.00367762
0.00364351
0.00366257
0.00364938
0.00364351
0.00367762
0.00366677
0.00364071
0.00367766
0.00363236
0.00365823
0.00364685
0.00363142
0.00362993
0.00367291
0.00364193
0.00363064
0.00366677
0.00364072
0.00367765
0.00363236
0.00365823
0.00364686
0.00362993
0.00363142
0.00364193
0.0036729
0.00363064
0.00363585
0.00364542
0.00364032
0.00364032
0.00363585
0.00364543
0.00364033
0.00364033
0.00363585
0.00364542
0.00364033
0.00364033
0.00363461
0.00364349
0.00362671
0.00362671
0.00363889
0.00363889
0.00362492
0.00363461
0.00364349
0.00362671
0.00362671
0.00363889
0.00363889
0.00362492
0.00363461
0.00364349
0.00362671
0.00362671
0.00363889
0.00363889
0.00362492
0.00363461
0.00364349
0.00362671
0.00362671
0.00363889
0.00363889
0.00362492
0.00366257
0.00364938
0.00364351
0.00367761
0.00365823
0.00364685
0.00363141
0.00362993
0.0036729
0.00364193
0.00363064
0.00366678
0.00364072
0.00367765
0.00363236
0.00365823
0.00364686
0.00362993
0.00363142
0.00364193
0.0036729
0.00363063
0.00366677
0.00364071
0.00367765
0.00363235
0.00365395
0.00368137
0.00368137
0.00364654
0.00368045
0.00365075
0.00363676
0.00363676
0.00367614
0.00367614
0.00364654
0.00368046
0.00366257
0.00364938
0.00364351
0.00367762
0.00365823
0.00364686
0.00362993
0.00363142
0.00364193
0.0036729
0.00363064
0.00365823
0.00364686
0.00362993
0.00363142
0.00364193
0.0036729
0.00363064
0.00366677
0.00364071
0.00367766
0.00363235
0.00366677
0.00364073
0.00367766
0.00363236
0.00365074
0.00363676
0.00363677
0.00367614
0.00367614
0.00364654
0.00368045
0.00364657
0.00368046
0.00359507
0.00358122
0.00359514
0.00358121
0.00361955
0.00361958
0.0035919
0.00358629
0.00358629
0.00357028
0.00358357
0.00357028
0.00358356
0.00358487
0.00357222
0.00357222
0.00358379
0.00358379
0.00359087
0.00361649
0.00361902
0.00358071
0.003589
0.00361596
0.00361457
0.00359773
0.00361844
0.00358563
0.00359855
0.003589
0.00361596
0.00361457
0.00359773
0.00361844
0.00358564
0.00359855
0.00358585
0.00357155
0.00358077
0.0035717
0.00358585
0.00357155
0.00358077
0.0035717
0.0035832
0.00358308
0.00357082
0.00357053
0.00358264
0.00358362
0.00356895
0.00358319
0.00358308
0.00357082
0.00357053
0.00358264
0.00358362
0.00356895
0.00361954
0.00361959
0.00359191
0.00358629
0.0035863
0.00359518
0.00358122
0.00357028
0.00358357
0.00358487
0.00357222
0.00357222
0.00358379
0.00358379
0.00357027
0.00358357
0.00358899
0.00361597
0.00361458
0.00359774
0.00361844
0.00358563
0.00359854
0.00359085
0.00361651
0.00361901
0.00358071
0.00358899
0.00361458
0.00361597
0.00359773
0.00361844
0.00359854
0.00358563
0.00358584
0.00357155
0.00358076
0.0035717
0.00358318
0.00358308
0.00357082
0.00357053
0.00358263
0.00358362
0.00356895
0.00358585
0.00357154
0.00358078
0.0035717
0.00358319
0.00358308
0.00357053
0.00357081
0.00358362
0.00358263
0.00356895
0.00359085
0.00361651
0.00361901
0.0035807
0.00358899
0.00361458
0.00361598
0.00359773
0.00361843
0.00359854
0.00358563
0.00359085
0.00361651
0.00361901
0.0035807
0.00358318
0.00358308
0.00357082
0.00357053
0.00358263
0.00358362
0.00356895
0.00358584
0.00357155
0.00358076
0.0035717
0.00358319
0.00358308
0.00357053
0.00357082
0.00358362
0.00358263
0.00356895
0.00358585
0.00357155
0.00358076
0.0035717
0.00361958
0.00361959
0.00359189
0.00358629
0.00358629
0.00359515
0.00358121
0.00357027
0.00358358
0.00358487
0.00357222
0.00357222
0.00358379
0.00358378
0.00357028
0.00358354
0.00358899
0.00361458
0.00361597
0.00359774
0.00361844
0.00359854
0.00358562
0.00359085
0.00361651
0.003619
0.0035807
0.00359085
0.00361651
0.00361901
0.0035807
0.00358319
0.00358308
0.00357053
0.00357081
0.00358362
0.00358263
0.00356895
0.00358318
0.00358308
0.00357053
0.00357081
0.00358362
0.00358263
0.00356895
0.00358585
0.00357154
0.00358077
0.00357169
0.00358584
0.00357154
0.00358076
0.00357169
0.00359516
0.00358121
0.00359516
0.00358122
0.00358486
0.00357222
0.00357222
0.00358378
0.00358378
0.00357028
0.00358355
0.00357027
0.00358356
0.00356325
0.00354248
0.00356325
0.00354247
0.00356533
0.00356533
0.0035434
0.00354389
0.00354389
0.00351701
0.00353596
0.00351701
0.00353596
0.00353634
0.00351805
0.00351805
0.00353727
0.00353727
0.00354448
0.00356451
0.00356524
0.00354298
0.00354307
0.00356405
0.00355846
0.00354652
0.00356272
0.00354333
0.00354635
0.00354306
0.00356405
0.00355846
0.00354652
0.00356272
0.00354333
0.00354635
0.00353781
0.00351742
0.00353643
0.00351851
0.00353781
0.00351742
0.00353643
0.00351851
0.00353645
0.0035338
0.00351776
0.00352081
0.0035368
0.00353377
0.00351738
0.00353645
0.0035338
0.00351776
0.00352081
0.0035368
0.00353377
0.00351738
0.00356533
0.00356533
0.0035434
0.00354389
0.0035439
0.00356326
0.00354248
0.00351701
0.00353596
0.00353634
0.00351805
0.00351805
0.00353727
0.00353727
0.00351701
0.00353596
0.00354306
0.00356405
0.00355846
0.00354652
0.00356272
0.00354333
0.00354635
0.00354448
0.00356451
0.00356524
0.00354298
0.00354306
0.00355846
0.00356405
0.00354652
0.00356272
0.00354635
0.00354332
0.00353781
0.00351742
0.00353643
0.00351851
0.00353645
0.0035338
0.00351776
0.00352081
0.00353679
0.00353377
0.00351738
0.00353781
0.00351742
0.00353643
0.00351851
0.00353645
0.0035338
0.00352081
0.00351776
0.00353377
0.00353679
0.00351738
0.00354448
0.00356452
0.00356524
0.00354298
0.00354306
0.00355846
0.00356405
0.00354652
0.00356272
0.00354635
0.00354333
0.00354448
0.00356452
0.00356524
0.00354298
0.00353645
0.0035338
0.00351776
0.00352081
0.00353679
0.00353377
0.00351738
0.00353781
0.00351742
0.00353643
0.00351851
0.00353645
0.0035338
0.00352081
0.00351776
0.00353377
0.00353679
0.00351738
0.00353781
0.00351742
0.00353643
0.00351851
0.00356533
0.00356533
0.0035434
0.00354389
0.00354389
0.00356325
0.00354248
0.00351701
0.00353595
0.00353634
0.00351805
0.00351805
0.00353727
0.00353727
0.00351701
0.00353596
0.00354307
0.00355846
0.00356405
0.00354651
0.00356272
0.00354635
0.00354333
0.00354448
0.00356451
0.00356524
0.00354298
0.00354448
0.00356451
0.00356524
0.00354298
0.00353645
0.0035338
0.00352081
0.00351776
0.00353377
0.00353679
0.00351738
0.00353645
0.0035338
0.00352081
0.00351776
0.00353377
0.00353679
0.00351738
0.00353781
0.00351742
0.00353643
0.00351851
0.00353781
0.00351742
0.00353643
0.00351851
0.00356326
0.00354247
0.00356325
0.00354248
0.00353634
0.00351805
0.00351805
0.00353727
0.00353727
0.00351701
0.00353595
0.00351701
0.00353596
0.00351052
0.00349081
0.00351052
0.00349081
0.0035115
0.0035115
0.00349132
0.00349162
0.00349162
0.00346454
0.00348418
0.00346454
0.00348418
0.00348415
0.0034652
0.0034652
0.00348495
0.00348495
0.00349212
0.0035109
0.00351194
0.00349111
0.00349122
0.00351119
0.00350767
0.00349454
0.00351077
0.00349148
0.00349451
0.00349122
0.00351119
0.00350767
0.00349454
0.00351077
0.00349148
0.00349451
0.00348543
0.00346477
0.00348445
0.00346566
0.00348543
0.00346477
0.00348445
0.00346566
0.00348452
0.00348142
0.00346517
0.00346831
0.00348479
0.00348138
0.00346499
0.00348452
0.00348142
0.00346517
0.00346831
0.00348479
0.00348138
0.00346499
0.0035115
0.0035115
0.00349132
0.00349162
0.00349162
0.00351052
0.00349081
0.00346454
0.00348418
0.00348415
0.0034652
0.0034652
0.00348495
0.00348495
0.00346454
0.00348418
0.00349122
0.00351119
0.00350767
0.00349454
0.00351077
0.00349148
0.00349451
0.00349212
0.0035109
0.00351194
0.00349111
0.00349122
0.00350767
0.00351118
0.00349454
0.00351077
0.00349451
0.00349148
0.00348543
0.00346477
0.00348445
0.00346566
0.00348452
0.00348142
0.00346517
0.00346831
0.00348479
0.00348138
0.00346499
0.00348543
0.00346477
0.00348445
0.00346566
0.00348452
0.00348142
0.00346831
0.00346517
0.00348138
0.00348479
0.00346499
0.00349212
0.0035109
0.00351194
0.00349111
0.00349122
0.00350767
0.00351119
0.00349454
0.00351077
0.00349451
0.00349148
0.00349212
0.0035109
0.00351194
0.00349111
0.00348452
0.00348142
0.00346517
0.00346831
0.00348479
0.00348138
0.00346499
0.00348543
0.00346477
0.00348445