/*--------------------------------*- C++ -*----------------------------------*\
| =========                 |                                                 |
| \\      /  F ield         | OpenFOAM: The Open Source CFD Toolbox           |
|  \\    /   O peration     | Version:  v1912                                 |
|   \\  /    A nd           | Website:  www.openfoam.com                      |
|    \\/     M anipulation  |                                                 |
\*---------------------------------------------------------------------------*/
FoamFile
{
    version     2.0;
    format      ascii;
    class       volScalarField;
    location    "20";
    object      epsilon;
}
// * * * * * * * * * * * * * * * * * * * * * * * * * * * * * * * * * * * * * //

dimensions      [0 2 -3 0 0 0 0];


internalField   nonuniform List<scalar> 
57062
(
3.34758e-07
3.55094e-07
3.55108e-07
3.8322e-07
3.34777e-07
3.55106e-07
3.55124e-07
3.83251e-07
3.3473e-07
3.54993e-07
3.55062e-07
3.8319e-07
3.34597e-07
3.54894e-07
3.54917e-07
3.83047e-07
3.34386e-07
3.54697e-07
3.54786e-07
3.82981e-07
3.34198e-07
3.54627e-07
3.54638e-07
3.82866e-07
3.34199e-07
3.54629e-07
3.54639e-07
3.82882e-07
3.34198e-07
3.54629e-07
3.54637e-07
3.82882e-07
3.34198e-07
3.54629e-07
3.54637e-07
3.82882e-07
3.34198e-07
3.54629e-07
3.54637e-07
3.82882e-07
3.34198e-07
3.54629e-07
3.54639e-07
3.82882e-07
3.34198e-07
3.54629e-07
3.54638e-07
3.82882e-07
3.34198e-07
3.54629e-07
3.54637e-07
3.82882e-07
3.34198e-07
3.54629e-07
3.54637e-07
3.82882e-07
3.34198e-07
3.54629e-07
3.54637e-07
3.82882e-07
3.34198e-07
3.5463e-07
3.54637e-07
3.82883e-07
3.34198e-07
3.54629e-07
3.54638e-07
3.82883e-07
3.34198e-07
3.54629e-07
3.54637e-07
3.82882e-07
3.34198e-07
3.54629e-07
3.54641e-07
3.82882e-07
3.34198e-07
3.54629e-07
3.54637e-07
3.82882e-07
3.34198e-07
3.54629e-07
3.54637e-07
3.82882e-07
3.34198e-07
3.54629e-07
3.54637e-07
3.82883e-07
3.34198e-07
3.54629e-07
3.54637e-07
3.82882e-07
3.34198e-07
3.54629e-07
3.54637e-07
3.82882e-07
3.34198e-07
3.54629e-07
3.54637e-07
3.82882e-07
3.34197e-07
3.54628e-07
3.54636e-07
3.82882e-07
3.34198e-07
3.54626e-07
3.54633e-07
3.82879e-07
3.34198e-07
3.54621e-07
3.54629e-07
3.82873e-07
3.34184e-07
3.54644e-07
3.54652e-07
3.8285e-07
3.3371e-07
3.51155e-07
3.51159e-07
3.77799e-07
3.83027e-07
3.55147e-07
3.5513e-07
3.82995e-07
3.55127e-07
3.5513e-07
3.55094e-07
3.55128e-07
3.83019e-07
3.5511e-07
3.55117e-07
3.83001e-07
3.83279e-07
3.83041e-07
3.55146e-07
3.55163e-07
3.55112e-07
3.55152e-07
3.83241e-07
3.83024e-07
3.55126e-07
3.55128e-07
3.55102e-07
3.55104e-07
3.55161e-07
3.55112e-07
3.55149e-07
3.8327e-07
3.8303e-07
3.55149e-07
3.55127e-07
3.55138e-07
3.83033e-07
3.83283e-07
3.8304e-07
3.55132e-07
3.55151e-07
3.55121e-07
3.55096e-07
3.83267e-07
3.8297e-07
3.55118e-07
3.55135e-07
3.55087e-07
3.55116e-07
3.55149e-07
3.5505e-07
3.55098e-07
3.83272e-07
3.83031e-07
3.55137e-07
3.55099e-07
3.55087e-07
3.82996e-07
3.8327e-07
3.82864e-07
3.55103e-07
3.55053e-07
3.54947e-07
3.54934e-07
3.8319e-07
3.82826e-07
3.55063e-07
3.55091e-07
3.54926e-07
3.54941e-07
3.55052e-07
3.54899e-07
3.54931e-07
3.8326e-07
3.82856e-07
3.55044e-07
3.54931e-07
3.54921e-07
3.82834e-07
3.83097e-07
3.82837e-07
3.54936e-07
3.54929e-07
3.54873e-07
3.54828e-07
3.83065e-07
3.82778e-07
3.54917e-07
3.54931e-07
3.54861e-07
3.5488e-07
3.54926e-07
3.54786e-07
3.54808e-07
3.8309e-07
3.82839e-07
3.54916e-07
3.54868e-07
3.54813e-07
3.82784e-07
3.83063e-07
3.82677e-07
3.54801e-07
3.54753e-07
3.54653e-07
3.54654e-07
3.83e-07
3.82655e-07
3.54792e-07
3.54816e-07
3.54642e-07
3.54664e-07
3.54737e-07
3.54629e-07
3.54652e-07
3.83066e-07
3.82678e-07
3.54738e-07
3.54641e-07
3.5464e-07
3.82653e-07
3.82913e-07
3.82675e-07
3.54669e-07
3.54674e-07
3.54656e-07
3.54662e-07
3.82893e-07
3.82663e-07
3.54658e-07
3.54681e-07
3.54645e-07
3.54668e-07
3.54673e-07
3.54631e-07
3.5466e-07
3.82913e-07
3.82677e-07
3.5466e-07
3.54642e-07
3.54648e-07
3.82667e-07
3.82917e-07
3.82677e-07
3.54674e-07
3.5468e-07
3.54658e-07
3.54664e-07
3.82904e-07
3.82663e-07
3.54663e-07
3.54687e-07
3.54647e-07
3.54671e-07
3.54678e-07
3.54631e-07
3.54662e-07
3.82919e-07
3.82677e-07
3.54666e-07
3.54638e-07
3.5465e-07
3.82666e-07
3.82917e-07
3.82677e-07
3.54675e-07
3.54681e-07
3.54657e-07
3.54664e-07
3.82904e-07
3.82662e-07
3.54664e-07
3.54689e-07
3.54647e-07
3.54672e-07
3.54679e-07
3.5463e-07
3.54662e-07
3.82917e-07
3.82678e-07
3.54667e-07
3.54638e-07
3.5465e-07
3.82666e-07
3.82917e-07
3.82677e-07
3.54675e-07
3.54681e-07
3.54657e-07
3.54664e-07
3.82903e-07
3.82662e-07
3.54664e-07
3.54689e-07
3.54647e-07
3.54672e-07
3.54679e-07
3.54631e-07
3.54662e-07
3.82918e-07
3.82678e-07
3.54667e-07
3.54638e-07
3.5465e-07
3.82667e-07
3.82917e-07
3.82676e-07
3.54675e-07
3.54681e-07
3.54657e-07
3.54664e-07
3.82903e-07
3.82662e-07
3.54664e-07
3.54689e-07
3.54647e-07
3.54672e-07
3.54679e-07
3.54631e-07
3.54662e-07
3.82918e-07
3.82678e-07
3.54667e-07
3.54641e-07
3.5465e-07
3.82666e-07
3.82917e-07
3.82676e-07
3.54675e-07
3.54681e-07
3.54658e-07
3.54664e-07
3.82903e-07
3.82662e-07
3.54664e-07
3.54689e-07
3.54647e-07
3.54672e-07
3.54679e-07
3.54631e-07
3.54662e-07
3.82918e-07
3.82678e-07
3.54667e-07
3.5464e-07
3.5465e-07
3.82666e-07
3.82917e-07
3.82677e-07
3.54675e-07
3.54681e-07
3.54657e-07
3.54664e-07
3.82903e-07
3.82662e-07
3.54664e-07
3.54689e-07
3.54647e-07
3.54672e-07
3.54679e-07
3.5463e-07
3.54662e-07
3.82918e-07
3.82678e-07
3.54667e-07
3.54638e-07
3.5465e-07
3.82666e-07
3.82917e-07
3.82677e-07
3.54675e-07
3.54681e-07
3.54658e-07
3.54664e-07
3.82903e-07
3.82662e-07
3.54664e-07
3.54689e-07
3.54647e-07
3.54672e-07
3.54679e-07
3.54631e-07
3.54662e-07
3.82918e-07
3.82678e-07
3.54667e-07
3.54639e-07
3.5465e-07
3.82666e-07
3.82917e-07
3.82676e-07
3.54675e-07
3.54681e-07
3.54658e-07
3.54664e-07
3.82903e-07
3.82662e-07
3.54664e-07
3.54689e-07
3.54647e-07
3.54672e-07
3.54679e-07
3.5463e-07
3.54662e-07
3.82918e-07
3.82677e-07
3.54667e-07
3.54638e-07
3.5465e-07
3.82666e-07
3.82917e-07
3.82677e-07
3.54675e-07
3.54681e-07
3.54658e-07
3.54664e-07
3.82903e-07
3.82662e-07
3.54664e-07
3.54689e-07
3.54647e-07
3.54672e-07
3.54679e-07
3.54631e-07
3.54662e-07
3.82917e-07
3.82678e-07
3.54667e-07
3.54639e-07
3.5465e-07
3.82667e-07
3.82917e-07
3.82677e-07
3.54675e-07
3.54681e-07
3.54657e-07
3.54664e-07
3.82903e-07
3.82662e-07
3.54664e-07
3.54689e-07
3.54647e-07
3.54672e-07
3.54679e-07
3.54631e-07
3.54662e-07
3.82918e-07
3.82678e-07
3.54667e-07
3.54639e-07
3.5465e-07
3.82667e-07
3.82917e-07
3.82676e-07
3.54675e-07
3.54681e-07
3.54658e-07
3.54664e-07
3.82903e-07
3.82663e-07
3.54664e-07
3.54689e-07
3.54647e-07
3.54672e-07
3.54679e-07
3.5463e-07
3.54662e-07
3.82918e-07
3.82678e-07
3.54667e-07
3.54638e-07
3.5465e-07
3.82667e-07
3.82917e-07
3.82677e-07
3.54675e-07
3.54681e-07
3.54658e-07
3.54664e-07
3.82903e-07
3.82662e-07
3.54664e-07
3.54689e-07
3.54647e-07
3.54672e-07
3.54679e-07
3.54631e-07
3.54662e-07
3.82918e-07
3.82678e-07
3.54667e-07
3.54644e-07
3.5465e-07
3.82666e-07
3.82917e-07
3.82677e-07
3.54675e-07
3.54681e-07
3.54658e-07
3.54664e-07
3.82903e-07
3.82662e-07
3.54664e-07
3.54689e-07
3.54647e-07
3.54672e-07
3.54679e-07
3.5463e-07
3.54662e-07
3.82919e-07
3.82678e-07
3.54667e-07
3.5464e-07
3.5465e-07
3.82666e-07
3.82917e-07
3.82676e-07
3.54675e-07
3.54681e-07
3.54658e-07
3.54664e-07
3.82903e-07
3.82662e-07
3.54664e-07
3.54689e-07
3.54646e-07
3.54672e-07
3.54679e-07
3.5463e-07
3.54662e-07
3.82918e-07
3.82678e-07
3.54667e-07
3.54638e-07
3.5465e-07
3.82666e-07
3.82917e-07
3.82677e-07
3.54675e-07
3.54681e-07
3.54658e-07
3.54664e-07
3.82903e-07
3.82662e-07
3.54664e-07
3.54689e-07
3.54647e-07
3.54672e-07
3.54679e-07
3.5463e-07
3.54662e-07
3.82918e-07
3.82678e-07
3.54667e-07
3.54639e-07
3.5465e-07
3.82667e-07
3.82917e-07
3.82677e-07
3.54675e-07
3.54681e-07
3.54658e-07
3.54664e-07
3.82903e-07
3.82662e-07
3.54664e-07
3.54689e-07
3.54646e-07
3.54672e-07
3.54679e-07
3.54631e-07
3.54662e-07
3.82918e-07
3.82678e-07
3.54667e-07
3.54638e-07
3.5465e-07
3.82666e-07
3.82917e-07
3.82677e-07
3.54675e-07
3.54681e-07
3.54658e-07
3.54664e-07
3.82903e-07
3.82662e-07
3.54664e-07
3.54689e-07
3.54646e-07
3.54672e-07
3.54679e-07
3.5463e-07
3.54662e-07
3.82918e-07
3.82678e-07
3.54667e-07
3.54639e-07
3.5465e-07
3.82666e-07
3.82917e-07
3.82676e-07
3.54675e-07
3.54681e-07
3.54657e-07
3.54664e-07
3.82903e-07
3.82662e-07
3.54663e-07
3.54689e-07
3.54646e-07
3.54672e-07
3.54679e-07
3.54631e-07
3.54662e-07
3.82918e-07
3.82678e-07
3.54667e-07
3.54639e-07
3.5465e-07
3.82666e-07
3.82917e-07
3.82676e-07
3.54674e-07
3.54681e-07
3.54656e-07
3.54663e-07
3.82903e-07
3.82662e-07
3.54663e-07
3.54689e-07
3.54645e-07
3.54671e-07
3.54679e-07
3.5463e-07
3.54661e-07
3.82918e-07
3.82677e-07
3.54667e-07
3.54638e-07
3.54649e-07
3.82666e-07
3.82916e-07
3.82674e-07
3.54673e-07
3.5468e-07
3.54654e-07
3.5466e-07
3.82902e-07
3.8266e-07
3.54662e-07
3.54688e-07
3.54643e-07
3.54668e-07
3.54678e-07
3.54628e-07
3.54658e-07
3.82917e-07
3.82675e-07
3.54666e-07
3.54635e-07
3.54646e-07
3.82664e-07
3.82913e-07
3.8267e-07
3.54671e-07
3.54677e-07
3.54649e-07
3.54654e-07
3.829e-07
3.82656e-07
3.5466e-07
3.54685e-07
3.54637e-07
3.54662e-07
3.54675e-07
3.54624e-07
3.54652e-07
3.82914e-07
3.82672e-07
3.54663e-07
3.54632e-07
3.5464e-07
3.8266e-07
3.82909e-07
3.82639e-07
3.54666e-07
3.5467e-07
3.5461e-07
3.54613e-07
3.82895e-07
3.82625e-07
3.54654e-07
3.54679e-07
3.54598e-07
3.54622e-07
3.54669e-07
3.54595e-07
3.54613e-07
3.8291e-07
3.8264e-07
3.54656e-07
3.54603e-07
3.54599e-07
3.82632e-07
3.82882e-07
3.80558e-07
3.54669e-07
3.54672e-07
3.52519e-07
3.52522e-07
3.82868e-07
3.80549e-07
3.54657e-07
3.54682e-07
3.52511e-07
3.52526e-07
3.54673e-07
3.52505e-07
3.52521e-07
3.82882e-07
3.80559e-07
3.54658e-07
3.52509e-07
3.5251e-07
3.80531e-07
3.77834e-07
3.51173e-07
3.51175e-07
3.77825e-07
3.51167e-07
3.51179e-07
3.33714e-07
3.33715e-07
3.33714e-07
3.51175e-07
3.77833e-07
3.51168e-07
3.34759e-07
3.34771e-07
3.34779e-07
3.34762e-07
1.65506e-06
8.51754e-06
1.65554e-06
8.51638e-06
2.42417e-05
2.4235e-05
1.6549e-06
8.51892e-06
1.65533e-06
8.51769e-06
3.34809e-07
3.34778e-07
3.3479e-07
3.34781e-07
3.34796e-07
3.34757e-07
3.34776e-07
5.83906e-07
1.3255e-06
3.4103e-07
3.55122e-07
5.84001e-07
1.32478e-06
3.41061e-07
2.42481e-05
2.42396e-05
5.83913e-07
3.41039e-07
1.32521e-06
3.5514e-07
5.84018e-07
3.41074e-07
1.32476e-06
2.75735e-06
2.75796e-06
3.83013e-07
2.75715e-06
2.75776e-06
1.65523e-06
8.51645e-06
1.65571e-06
8.51537e-06
2.42316e-05
2.42315e-05
1.65506e-06
8.51786e-06
1.65551e-06
8.51674e-06
3.34795e-07
3.34774e-07
3.34809e-07
3.34754e-07
3.34744e-07
3.34737e-07
3.34771e-07
5.83946e-07
1.32542e-06
3.41039e-07
3.55101e-07
5.84074e-07
1.32481e-06
3.41033e-07
2.42336e-05
2.42318e-05
5.84006e-07
3.41055e-07
1.32544e-06
3.55123e-07
5.8412e-07
3.41054e-07
1.3248e-06
2.75811e-06
2.75871e-06
3.83035e-07
2.7578e-06
2.7584e-06
1.65616e-06
8.52097e-06
1.65634e-06
8.52427e-06
2.42381e-05
2.42395e-05
1.65593e-06
8.52191e-06
1.65611e-06
8.52533e-06
3.34711e-07
3.34719e-07
3.34735e-07
3.34614e-07
3.3459e-07
3.34593e-07
3.34594e-07
5.83849e-07
1.32603e-06
3.40941e-07
3.54969e-07
5.84037e-07
1.32544e-06
3.40918e-07
2.4235e-05
2.42379e-05
5.83906e-07
3.41002e-07
1.32568e-06
3.55035e-07
5.84117e-07
3.4098e-07
1.32527e-06
2.75913e-06
2.75971e-06
3.82871e-07
2.75876e-06
2.75932e-06
1.65619e-06
8.52505e-06
1.65667e-06
8.52454e-06
2.42408e-05
2.424e-05
1.656e-06
8.52638e-06
1.6564e-06
8.52595e-06
3.3458e-07
3.34582e-07
3.34583e-07
3.34506e-07
3.34418e-07
3.34492e-07
3.34419e-07
5.83846e-07
1.32615e-06
3.40836e-07
3.54887e-07
5.83982e-07
1.32541e-06
3.40824e-07
2.4241e-05
2.42405e-05
5.83881e-07
3.40863e-07
1.32598e-06
3.54913e-07
5.84004e-07
3.40855e-07
1.32532e-06
2.7593e-06
2.75983e-06
3.82833e-07
2.75861e-06
2.75913e-06
1.65586e-06
8.52514e-06
1.65657e-06
8.52405e-06
2.42393e-05
2.42386e-05
1.65569e-06
8.52637e-06
1.65634e-06
8.52516e-06
3.3432e-07
3.34391e-07
3.34321e-07
3.34202e-07
3.34208e-07
3.34211e-07
3.34209e-07
5.83744e-07
1.32587e-06
3.40589e-07
3.54672e-07
5.83916e-07
1.3251e-06
3.4056e-07
2.42404e-05
2.42392e-05
5.83806e-07
3.40679e-07
1.32586e-06
3.54727e-07
5.83999e-07
3.40612e-07
1.3251e-06
2.7585e-06
2.75899e-06
3.82683e-07
2.75761e-06
2.75817e-06
1.6558e-06
8.52457e-06
1.65631e-06
8.52381e-06
2.42389e-05
2.42384e-05
1.65561e-06
8.52566e-06
1.65608e-06
8.52499e-06
3.34235e-07
3.34232e-07
3.34235e-07
3.34201e-07
3.34216e-07
3.34219e-07
3.34217e-07
5.83723e-07
1.32573e-06
3.40513e-07
3.54647e-07
5.83857e-07
1.32504e-06
3.40535e-07
2.42395e-05
2.42386e-05
5.8375e-07
3.40517e-07
1.32567e-06
3.54656e-07
5.83895e-07
3.40537e-07
1.325e-06
2.75811e-06
2.75868e-06
3.82653e-07
2.75755e-06
2.75814e-06
1.65581e-06
8.52456e-06
1.65633e-06
8.52383e-06
2.42389e-05
2.42384e-05
1.65561e-06
8.52574e-06
1.65607e-06
8.52502e-06
3.34236e-07
3.34238e-07
3.34236e-07
3.342e-07
3.34217e-07
3.34219e-07
3.34217e-07
5.83724e-07
1.32573e-06
3.40514e-07
3.54647e-07
5.83857e-07
1.32504e-06
3.40535e-07
2.42395e-05
2.42386e-05
5.83753e-07
3.40517e-07
1.32566e-06
3.54656e-07
5.83887e-07
3.40537e-07
1.32501e-06
2.75814e-06
2.75871e-06
3.82659e-07
2.75757e-06
2.75815e-06
1.65582e-06
8.52458e-06
1.65633e-06
8.52387e-06
2.42389e-05
2.42384e-05
1.65561e-06
8.52576e-06
1.65607e-06
8.52502e-06
3.34236e-07
3.34238e-07
3.34237e-07
3.342e-07
3.34217e-07
3.34219e-07
3.34218e-07
5.83724e-07
1.32573e-06
3.40516e-07
3.54647e-07
5.83856e-07
1.32504e-06
3.40536e-07
2.42395e-05
2.42386e-05
5.8375e-07
3.40516e-07
1.32566e-06
3.54655e-07
5.83882e-07
3.40536e-07
1.32501e-06
2.75814e-06
2.75872e-06
3.8266e-07
2.75757e-06
2.75816e-06
1.65582e-06
8.52459e-06
1.65634e-06
8.52386e-06
2.42389e-05
2.42384e-05
1.65561e-06
8.52576e-06
1.65608e-06
8.52502e-06
3.34236e-07
3.34238e-07
3.34237e-07
3.342e-07
3.34217e-07
3.34219e-07
3.34217e-07
5.83723e-07
1.32573e-06
3.40514e-07
3.54647e-07
5.83856e-07
1.32504e-06
3.40534e-07
2.42395e-05
2.42386e-05
5.83751e-07
3.40516e-07
1.32566e-06
3.54655e-07
5.83881e-07
3.40535e-07
1.32501e-06
2.75814e-06
2.75873e-06
3.8266e-07
2.75758e-06
2.75817e-06
1.65582e-06
8.5246e-06
1.65633e-06
8.52387e-06
2.42389e-05
2.42384e-05
1.65561e-06
8.52576e-06
1.65608e-06
8.52502e-06
3.34236e-07
3.34238e-07
3.34237e-07
3.34199e-07
3.34217e-07
3.34219e-07
3.34217e-07
5.83723e-07
1.32573e-06
3.40514e-07
3.54647e-07
5.83856e-07
1.32504e-06
3.40534e-07
2.42395e-05
2.42386e-05
5.83763e-07
3.40517e-07
1.32566e-06
3.54655e-07
5.83891e-07
3.4054e-07
1.32501e-06
2.75815e-06
2.75874e-06
3.82659e-07
2.75758e-06
2.75818e-06
1.65582e-06
8.52461e-06
1.65634e-06
8.52387e-06
2.42389e-05
2.42384e-05
1.65562e-06
8.52576e-06
1.65608e-06
8.52502e-06
3.34236e-07
3.34239e-07
3.34237e-07
3.342e-07
3.34217e-07
3.34219e-07
3.34217e-07
5.83724e-07
1.32573e-06
3.40516e-07
3.54648e-07
5.83856e-07
1.32504e-06
3.40536e-07
2.42395e-05
2.42386e-05
5.83776e-07
3.4052e-07
1.32566e-06
3.54657e-07
5.83904e-07
3.40539e-07
1.32501e-06
2.75814e-06
2.75874e-06
3.8266e-07
2.75758e-06
2.75817e-06
1.65581e-06
8.52458e-06
1.65633e-06
8.52384e-06
2.42389e-05
2.42384e-05
1.65561e-06
8.52575e-06
1.65608e-06
8.52502e-06
3.34236e-07
3.34239e-07
3.34237e-07
3.342e-07
3.34217e-07
3.34219e-07
3.34217e-07
5.83724e-07
1.32573e-06
3.40515e-07
3.54647e-07
5.83857e-07
1.32504e-06
3.40534e-07
2.42395e-05
2.42386e-05
5.83778e-07
3.40516e-07
1.32566e-06
3.54655e-07
5.8391e-07
3.40536e-07
1.32501e-06
2.75814e-06
2.75873e-06
3.8266e-07
2.75757e-06
2.75817e-06
1.65581e-06
8.52458e-06
1.65633e-06
8.52382e-06
2.42389e-05
2.42384e-05
1.65561e-06
8.52576e-06
1.65607e-06
8.52502e-06
3.34236e-07
3.34238e-07
3.34237e-07
3.342e-07
3.34216e-07
3.34219e-07
3.34217e-07
5.83724e-07
1.32573e-06
3.40514e-07
3.54647e-07
5.83857e-07
1.32504e-06
3.40534e-07
2.42395e-05
2.42386e-05
5.83778e-07
3.40516e-07
1.32566e-06
3.54655e-07
5.83912e-07
3.40536e-07
1.32501e-06
2.75814e-06
2.75873e-06
3.82659e-07
2.75757e-06
2.75817e-06
1.65582e-06
8.52454e-06
1.65633e-06
8.52386e-06
2.42389e-05
2.42384e-05
1.65562e-06
8.52576e-06
1.65608e-06
8.52502e-06
3.34236e-07
3.34238e-07
3.34237e-07
3.342e-07
3.34217e-07
3.34218e-07
3.34217e-07
5.83724e-07
1.32573e-06
3.40514e-07
3.54647e-07
5.83856e-07
1.32504e-06
3.40534e-07
2.42395e-05
2.42386e-05
5.83774e-07
3.40516e-07
1.32566e-06
3.54655e-07
5.83909e-07
3.40535e-07
1.32501e-06
2.75814e-06
2.75873e-06
3.8266e-07
2.75757e-06
2.75816e-06
1.65582e-06
8.52461e-06
1.65633e-06
8.52387e-06
2.42389e-05
2.42384e-05
1.65561e-06
8.52576e-06
1.65608e-06
8.52502e-06
3.34236e-07
3.34238e-07
3.34237e-07
3.342e-07
3.34217e-07
3.34219e-07
3.34217e-07
5.83723e-07
1.32573e-06
3.40515e-07
3.54647e-07
5.83856e-07
1.32504e-06
3.40539e-07
2.42395e-05
2.42386e-05
5.8377e-07
3.40516e-07
1.32566e-06
3.54655e-07
5.83905e-07
3.40536e-07
1.32501e-06
2.75814e-06
2.75873e-06
3.8266e-07
2.75757e-06
2.75817e-06
1.65582e-06
8.52459e-06
1.65633e-06
8.52386e-06
2.42389e-05
2.42384e-05
1.65562e-06
8.52575e-06
1.65607e-06
8.52502e-06
3.34236e-07
3.34238e-07
3.34237e-07
3.34199e-07
3.34216e-07
3.34219e-07
3.34217e-07
5.83724e-07
1.32573e-06
3.40518e-07
3.54648e-07
5.83856e-07
1.32504e-06
3.40537e-07
2.42395e-05
2.42386e-05
5.83769e-07
3.40516e-07
1.32566e-06
3.54656e-07
5.83902e-07
3.40537e-07
1.32501e-06
2.75814e-06
2.75874e-06
3.8266e-07
2.75757e-06
2.75818e-06
1.65582e-06
8.5246e-06
1.65633e-06
8.52382e-06
2.42389e-05
2.42383e-05
1.65562e-06
8.52576e-06
1.65609e-06
8.52501e-06
3.34236e-07
3.34238e-07
3.34237e-07
3.342e-07
3.34216e-07
3.34219e-07
3.34217e-07
5.83723e-07
1.32573e-06
3.40515e-07
3.54647e-07
5.83856e-07
1.32504e-06
3.40534e-07
2.42395e-05
2.42386e-05
5.83768e-07
3.40519e-07
1.32566e-06
3.54656e-07
5.83902e-07
3.40538e-07
1.32501e-06
2.75814e-06
2.75874e-06
3.8266e-07
2.75758e-06
2.75817e-06
1.65582e-06
8.52456e-06
1.65634e-06
8.52383e-06
2.42389e-05
2.42384e-05
1.65563e-06
8.52574e-06
1.65609e-06
8.52511e-06
3.34236e-07
3.34238e-07
3.34237e-07
3.342e-07
3.34217e-07
3.34219e-07
3.34217e-07
5.83723e-07
1.32573e-06
3.40514e-07
3.54648e-07
5.83856e-07
1.32504e-06
3.40534e-07
2.42395e-05
2.42386e-05
5.83768e-07
3.40516e-07
1.32566e-06
3.54657e-07
5.83902e-07
3.40536e-07
1.32501e-06
2.75815e-06
2.75873e-06
3.8266e-07
2.75758e-06
2.75817e-06
1.65582e-06
8.52457e-06
1.65633e-06
8.52384e-06
2.42389e-05
2.42384e-05
1.6556e-06
8.52597e-06
1.65608e-06
8.52525e-06
3.34236e-07
3.34239e-07
3.34237e-07
3.342e-07
3.34217e-07
3.34219e-07
3.34217e-07
5.83723e-07
1.32573e-06
3.40516e-07
3.54647e-07
5.83856e-07
1.32504e-06
3.40535e-07
2.42395e-05
2.42386e-05
5.83769e-07
3.40516e-07
1.32566e-06
3.54658e-07
5.83902e-07
3.40536e-07
1.32501e-06
2.75815e-06
2.75873e-06
3.8266e-07
2.75758e-06
2.75817e-06
1.65582e-06
8.52458e-06
1.65633e-06
8.52386e-06
2.42389e-05
2.42384e-05
1.65561e-06
8.52601e-06
1.65607e-06
8.52527e-06
3.34236e-07
3.34238e-07
3.34237e-07
3.34199e-07
3.34216e-07
3.34219e-07
3.34217e-07
5.83724e-07
1.32573e-06
3.40514e-07
3.54647e-07
5.83856e-07
1.32504e-06
3.40534e-07
2.42395e-05
2.42386e-05
5.83768e-07
3.40516e-07
1.32566e-06
3.54655e-07
5.83902e-07
3.40536e-07
1.32501e-06
2.75814e-06
2.75873e-06
3.8266e-07
2.75757e-06
2.75818e-06
1.65581e-06
8.5246e-06
1.65633e-06
8.52387e-06
2.42389e-05
2.42384e-05
1.65561e-06
8.52602e-06
1.65607e-06
8.52529e-06
3.34236e-07
3.34238e-07
3.34237e-07
3.342e-07
3.34216e-07
3.34219e-07
3.34217e-07
5.83723e-07
1.32573e-06
3.40514e-07
3.54647e-07
5.83856e-07
1.32504e-06
3.40534e-07
2.42395e-05
2.42386e-05
5.83769e-07
3.40516e-07
1.32566e-06
3.54655e-07
5.83902e-07
3.40536e-07
1.32501e-06
2.75814e-06
2.75873e-06
3.8266e-07
2.75757e-06
2.75817e-06
1.65581e-06
8.5246e-06
1.65633e-06
8.52387e-06
2.42389e-05
2.42384e-05
1.65561e-06
8.52602e-06
1.65607e-06
8.52532e-06
3.34236e-07
3.34238e-07
3.34237e-07
3.342e-07
3.34217e-07
3.34219e-07
3.34217e-07
5.83723e-07
1.32573e-06
3.40515e-07
3.54647e-07
5.83856e-07
1.32504e-06
3.40535e-07
2.42395e-05
2.42386e-05
5.83769e-07
3.40516e-07
1.32566e-06
3.54655e-07
5.83903e-07
3.40536e-07
1.32501e-06
2.75814e-06
2.75873e-06
3.8266e-07
2.75757e-06
2.75817e-06
1.65582e-06
8.52461e-06
1.65633e-06
8.52387e-06
2.42389e-05
2.42384e-05
1.65562e-06
8.52604e-06
1.65608e-06
8.5253e-06
3.34236e-07
3.34238e-07
3.34237e-07
3.34199e-07
3.34216e-07
3.34219e-07
3.34217e-07
5.83723e-07
1.32573e-06
3.40514e-07
3.54647e-07
5.83856e-07
1.32504e-06
3.40534e-07
2.42395e-05
2.42386e-05
5.83769e-07
3.40516e-07
1.32566e-06
3.54655e-07
5.83902e-07
3.40536e-07
1.32501e-06
2.75814e-06
2.75874e-06
3.8266e-07
2.75758e-06
2.75817e-06
1.65581e-06
8.5246e-06
1.65633e-06
8.52388e-06
2.42389e-05
2.42384e-05
1.65564e-06
8.52606e-06
1.65609e-06
8.52532e-06
3.34236e-07
3.34239e-07
3.34237e-07
3.342e-07
3.34217e-07
3.34219e-07
3.34217e-07
5.83723e-07
1.32573e-06
3.40514e-07
3.54647e-07
5.83856e-07
1.32504e-06
3.40534e-07
2.42395e-05
2.42386e-05
5.83768e-07
3.40516e-07
1.32566e-06
3.54655e-07
5.83902e-07
3.40536e-07
1.32501e-06
2.75814e-06
2.75873e-06
3.8266e-07
2.75757e-06
2.75817e-06
1.65583e-06
8.52462e-06
1.65635e-06
8.52426e-06
2.42388e-05
2.42389e-05
1.65563e-06
8.52606e-06
1.6561e-06
8.52571e-06
3.34236e-07
3.34239e-07
3.34237e-07
3.34199e-07
3.34217e-07
3.34219e-07
3.34217e-07
5.83723e-07
1.32568e-06
3.40515e-07
3.54647e-07
5.83855e-07
1.32496e-06
3.40535e-07
2.42395e-05
2.42393e-05
5.83759e-07
3.40516e-07
1.32561e-06
3.54655e-07
5.83896e-07
3.40535e-07
1.32493e-06
2.7581e-06
2.75869e-06
3.8266e-07
2.75748e-06
2.75808e-06
1.65609e-06
8.52499e-06
1.65661e-06
8.52611e-06
2.42369e-05
2.42404e-05
1.6559e-06
8.52646e-06
1.65636e-06
8.52757e-06
3.34236e-07
3.34238e-07
3.34237e-07
3.342e-07
3.34217e-07
3.34219e-07
3.34217e-07
5.83727e-07
1.32527e-06
3.40514e-07
3.54646e-07
5.83856e-07
1.32444e-06
3.40534e-07
2.4238e-05
2.42418e-05
5.8375e-07
3.40516e-07
1.32521e-06
3.54653e-07
5.83882e-07
3.40535e-07
1.32441e-06
2.75776e-06
2.75835e-06
3.82659e-07
2.75913e-06
2.75969e-06
1.6569e-06
8.52516e-06
1.6576e-06
8.52693e-06
2.42214e-05
2.42318e-05
1.6567e-06
8.52653e-06
1.65734e-06
8.52853e-06
3.34236e-07
3.34238e-07
3.34237e-07
3.342e-07
3.34216e-07
3.34218e-07
3.34216e-07
5.83775e-07
1.32473e-06
3.40514e-07
3.54642e-07
5.83899e-07
1.32396e-06
3.40533e-07
2.42235e-05
2.42339e-05
5.83793e-07
3.40515e-07
1.32469e-06
3.5465e-07
5.83918e-07
3.40535e-07
1.32404e-06
2.76159e-06
2.76222e-06
3.82655e-07
2.76326e-06
2.76385e-06
1.65708e-06
8.52123e-06
1.65773e-06
8.52498e-06
2.4203e-05
2.42228e-05
1.6569e-06
8.52334e-06
1.65747e-06
8.52689e-06
3.34235e-07
3.34237e-07
3.34236e-07
3.34196e-07
3.34207e-07
3.34209e-07
3.34208e-07
5.83804e-07
1.32577e-06
3.40514e-07
3.54635e-07
5.83946e-07
1.32664e-06
3.40533e-07
2.42057e-05
2.42252e-05
5.83823e-07
3.40514e-07
1.32591e-06
3.54642e-07
5.83963e-07
3.40532e-07
1.3268e-06
2.76551e-06
2.76608e-06
3.8265e-07
2.76807e-06
2.76864e-06
1.65455e-06
8.50974e-06
1.65799e-06
8.51055e-06
2.41829e-05
2.41993e-05
1.65459e-06
8.51139e-06
1.65783e-06
8.51205e-06
3.34227e-07
3.34229e-07
3.34227e-07
3.34074e-07
3.34078e-07
3.34079e-07
3.34077e-07
5.82851e-07
1.33021e-06
3.40478e-07
3.5441e-07
5.83896e-07
1.32924e-06
3.40547e-07
2.41851e-05
2.4201e-05
5.82862e-07
3.40481e-07
1.33041e-06
3.54417e-07
5.83914e-07
3.40549e-07
1.32927e-06
2.76749e-06
2.76804e-06
3.82302e-07
2.76351e-06
2.76382e-06
1.23086e-06
7.53253e-06
1.63595e-06
3.33224e-06
1.94321e-05
7.4945e-06
1.23087e-06
7.53466e-06
1.63608e-06
3.33266e-06
3.30586e-07
3.31338e-07
3.31337e-07
3.35151e-07
3.30579e-07
3.31627e-07
3.31627e-07
5.54294e-07
1.26922e-06
3.39374e-07
3.48643e-07
5.73166e-07
1.25609e-06
3.37402e-07
1.94328e-05
7.49438e-06
5.54305e-07
3.39376e-07
1.2692e-06
3.48645e-07
5.73169e-07
3.37403e-07
1.25604e-06
2.7465e-06
2.74714e-06
3.71483e-07
2.3819e-06
2.38196e-06
2.42477e-05
2.42494e-05
2.7562e-06
2.75665e-06
8.51715e-06
1.65504e-06
8.51817e-06
8.5188e-06
1.65498e-06
1.32443e-06
3.41053e-07
5.83842e-07
3.55132e-07
1.32484e-06
3.41057e-07
1.32517e-06
5.83844e-07
2.42428e-05
2.42514e-05
3.83227e-07
2.75718e-06
2.75664e-06
2.75674e-06
2.75633e-06
2.42403e-05
2.42491e-05
8.51853e-06
1.65488e-06
1.32445e-06
3.41036e-07
5.83847e-07
8.51886e-06
1.65499e-06
3.41037e-07
1.32464e-06
5.83857e-07
5.83975e-07
3.551e-07
1.32479e-06
3.4103e-07
1.32512e-06
3.41034e-07
5.8386e-07
1.6556e-06
8.51784e-06
8.51853e-06
1.65501e-06
5.83979e-07
3.55131e-07
3.41041e-07
1.32475e-06
3.41045e-07
1.32513e-06
5.83868e-07
1.65559e-06
8.51859e-06
8.51931e-06
1.655e-06
2.42492e-05
2.75691e-06
2.75625e-06
2.42488e-05
3.4104e-07
1.32446e-06
5.83875e-07
3.55119e-07
3.41058e-07
1.32487e-06
1.3252e-06
5.83854e-07
8.51866e-06
1.65511e-06
8.51917e-06
8.51986e-06
1.65491e-06
3.8323e-07
2.75665e-06
2.75726e-06
2.75621e-06
2.7568e-06
2.42432e-05
2.42518e-05
2.42441e-05
2.42527e-05
2.42465e-05
2.42378e-05
2.42482e-05
2.42396e-05
2.75676e-06
2.7572e-06
3.83042e-07
2.75694e-06
2.75729e-06
2.42313e-05
2.4237e-05
2.42331e-05
2.42389e-05
3.83281e-07
2.75725e-06
2.75761e-06
2.75727e-06
2.75761e-06
1.65519e-06
8.51814e-06
1.65542e-06
8.51754e-06
5.83881e-07
1.32508e-06
3.41052e-07
3.55139e-07
5.83998e-07
1.32474e-06
3.41048e-07
5.83893e-07
1.32541e-06
3.41057e-07
3.55163e-07
5.84001e-07
1.32486e-06
3.41054e-07
1.65543e-06
8.5161e-06
8.51638e-06
1.65517e-06
1.65557e-06
8.51715e-06
8.51753e-06
1.65533e-06
5.84038e-07
3.55115e-07
1.32474e-06
3.4103e-07
1.32529e-06
3.4103e-07
5.83925e-07
5.84054e-07
3.55157e-07
1.32483e-06
3.41038e-07
1.32539e-06
3.41038e-07
5.83948e-07
2.75761e-06
2.75723e-06
3.83012e-07
2.75769e-06
2.75728e-06
2.42396e-05
2.42323e-05
2.42314e-05
2.42353e-05
3.83257e-07
2.75798e-06
2.75761e-06
2.75803e-06
2.7577e-06
2.4229e-05
2.42328e-05
5.83881e-07
1.32516e-06
3.41035e-07
3.55122e-07
5.83998e-07
1.32486e-06
3.41032e-07
1.65513e-06
8.51895e-06
1.65537e-06
8.51887e-06
5.83891e-07
3.41036e-07
1.32536e-06
3.5512e-07
5.84011e-07
3.41031e-07
1.32508e-06
1.65523e-06
8.51745e-06
8.51771e-06
1.65503e-06
5.84034e-07
3.55103e-07
1.32496e-06
3.41016e-07
1.32548e-06
3.41016e-07
5.8393e-07
1.65544e-06
8.5185e-06
8.51884e-06
1.65519e-06
5.84047e-07
3.55104e-07
3.41014e-07
1.32519e-06
3.41015e-07
1.32571e-06
5.83942e-07
1.65512e-06
8.51784e-06
1.65537e-06
8.51729e-06
5.83916e-07
3.41071e-07
1.32532e-06
3.5516e-07
5.84021e-07
3.41066e-07
1.32477e-06
1.65512e-06
8.51852e-06
1.65536e-06
8.51794e-06
5.84059e-07
3.55115e-07
1.32474e-06
3.41048e-07
1.32533e-06
3.41052e-07
5.8394e-07
1.65548e-06
8.51672e-06
8.51729e-06
1.65521e-06
5.84069e-07
3.55154e-07
3.4105e-07
1.32475e-06
3.4105e-07
1.3253e-06
5.83951e-07
1.65548e-06
8.5175e-06
8.51795e-06
1.6552e-06
2.75762e-06
2.75684e-06
3.83031e-07
2.75785e-06
2.75704e-06
2.42476e-05
2.42391e-05
2.42335e-05
2.42393e-05
3.83269e-07
2.75826e-06
2.75743e-06
2.75831e-06
2.75739e-06
2.42329e-05
2.42384e-05
5.839e-07
3.41058e-07
1.32544e-06
3.55149e-07
5.84005e-07
3.41054e-07
1.3249e-06
1.65528e-06
8.51868e-06
1.65554e-06
8.51838e-06
1.65509e-06
8.5191e-06
1.6553e-06
8.51852e-06
5.84075e-07
3.55131e-07
3.41058e-07
1.3248e-06
3.41064e-07
1.32532e-06
5.8397e-07
5.84057e-07
3.55143e-07
3.4104e-07
1.3249e-06
3.4104e-07
1.32544e-06
5.83957e-07
1.65566e-06
8.51823e-06
8.5184e-06
1.65539e-06
1.65542e-06
8.51806e-06
8.51852e-06
1.65521e-06
2.42422e-05
2.42351e-05
2.42432e-05
2.42361e-05
3.83264e-07
2.75751e-06
2.75812e-06
2.75749e-06
2.7581e-06
2.42319e-05
2.42356e-05
2.42328e-05
2.42365e-05
2.4232e-05
2.42299e-05
2.42338e-05
2.42316e-05
2.75754e-06
2.75792e-06
3.83047e-07
2.75751e-06
2.75792e-06
2.42318e-05
2.42318e-05
2.42335e-05
2.42335e-05
3.83288e-07
2.75796e-06
2.75843e-06
2.75783e-06
2.75825e-06
1.65538e-06
8.51711e-06
1.65569e-06
8.51738e-06
5.8396e-07
1.32525e-06
3.41056e-07
3.55132e-07
5.84079e-07
1.3247e-06
3.41056e-07
5.83985e-07
1.32537e-06
3.41066e-07
3.55145e-07
5.84106e-07
1.32489e-06
3.41065e-07
1.65558e-06
8.51777e-06
8.5154e-06
1.65558e-06
1.65571e-06
8.52325e-06
8.5174e-06
1.65558e-06
5.84115e-07
3.55127e-07
1.32492e-06
3.4104e-07
1.32524e-06
3.41051e-07
5.83983e-07
5.84135e-07
3.5513e-07
1.32531e-06
3.4104e-07
1.3255e-06
3.41057e-07
5.83987e-07
2.75829e-06
2.758e-06
3.83028e-07
2.75831e-06
2.75792e-06
2.42304e-05
2.42294e-05
2.42354e-05
2.42337e-05
3.83264e-07
2.75897e-06
2.75857e-06
2.75869e-06
2.75838e-06
2.42329e-05
2.42319e-05
5.83971e-07
1.32553e-06
3.4104e-07
3.55115e-07
5.84085e-07
1.32497e-06
3.41035e-07
1.65522e-06
8.51851e-06
1.65549e-06
8.51813e-06
5.83982e-07
3.41044e-07
1.32575e-06
3.55134e-07
5.841e-07
3.41042e-07
1.32517e-06
1.65537e-06
8.51872e-06
8.51673e-06
1.65541e-06
5.84119e-07
3.551e-07
1.3252e-06
3.41002e-07
1.32555e-06
3.41015e-07
5.83982e-07
1.6555e-06
8.51874e-06
8.51809e-06
1.65544e-06
5.8413e-07
3.55127e-07
3.41016e-07
1.3253e-06
3.41033e-07
1.32574e-06
5.83985e-07
1.65529e-06
8.51668e-06
1.65555e-06
8.51686e-06
5.83947e-07
3.41081e-07
1.32529e-06
3.55145e-07
5.84092e-07
3.41078e-07
1.32482e-06
1.65527e-06
8.51745e-06
1.65554e-06
8.51773e-06
5.8409e-07
3.55078e-07
1.32525e-06
3.40989e-07
1.32545e-06
3.41009e-07
5.83921e-07
1.65578e-06
8.52298e-06
8.51703e-06
1.65605e-06
5.84089e-07
3.55131e-07
3.41036e-07
1.32524e-06
3.41064e-07
1.32543e-06
5.83922e-07
1.65576e-06
8.52394e-06
8.51779e-06
1.65605e-06
2.75865e-06
2.75776e-06
3.83037e-07
2.75851e-06
2.75776e-06
2.42336e-05
2.42315e-05
2.42336e-05
2.42338e-05
3.83277e-07
2.75889e-06
2.75818e-06
2.7589e-06
2.75809e-06
2.42331e-05
2.42334e-05
5.8399e-07
3.41068e-07
1.32544e-06
3.55133e-07
5.8411e-07
3.41066e-07
1.32496e-06
1.65543e-06
8.5182e-06
1.65576e-06
8.51816e-06
1.65524e-06
8.51804e-06
1.65552e-06
8.51826e-06
5.8415e-07
3.5511e-07
3.4103e-07
1.32492e-06
3.41039e-07
1.32533e-06
5.8399e-07
5.84132e-07
3.55119e-07
3.41039e-07
1.32537e-06
3.41057e-07
1.32557e-06
5.83981e-07
1.65576e-06
8.51874e-06
8.5182e-06
1.6556e-06
1.65552e-06
8.52458e-06
8.51835e-06
1.65543e-06
2.42332e-05
2.42324e-05
2.42341e-05
2.42333e-05
3.83276e-07
2.75844e-06
2.75902e-06
2.75818e-06
2.75877e-06
2.4236e-05
2.42346e-05
2.42366e-05
2.42355e-05
2.42341e-05
2.42363e-05
2.42358e-05
2.42379e-05
2.75836e-06
2.75886e-06
3.8294e-07
2.75856e-06
2.75908e-06
2.42387e-05
2.42384e-05
2.42404e-05
2.424e-05
3.83162e-07
2.75865e-06
2.75918e-06
2.75886e-06
2.75939e-06
1.65619e-06
8.5256e-06
1.65615e-06
8.52589e-06
5.83883e-07
1.3256e-06
3.41014e-07
3.55052e-07
5.84117e-07
1.32531e-06
3.40968e-07
5.83887e-07
1.32597e-06
3.41008e-07
3.55007e-07
5.84119e-07