/*--------------------------------*- C++ -*----------------------------------*\
| =========                 |                                                 |
| \\      /  F ield         | OpenFOAM: The Open Source CFD Toolbox           |
|  \\    /   O peration     | Version:  v1912                                 |
|   \\  /    A nd           | Website:  www.openfoam.com                      |
|    \\/     M anipulation  |                                                 |
\*---------------------------------------------------------------------------*/
FoamFile
{
    version     2.0;
    format      ascii;
    class       volScalarField;
    location    "20";
    object      k;
}
// * * * * * * * * * * * * * * * * * * * * * * * * * * * * * * * * * * * * * //

dimensions      [0 2 -2 0 0 0 0];


internalField   nonuniform List<scalar> 
57062
(
2.90206e-05
2.87317e-05
2.87317e-05
2.83659e-05
2.90211e-05
2.87303e-05
2.87319e-05
2.83656e-05
2.90137e-05
2.87128e-05
2.87232e-05
2.83459e-05
2.89851e-05
2.86965e-05
2.86964e-05
2.83339e-05
2.89863e-05
2.86987e-05
2.86976e-05
2.83336e-05
2.89891e-05
2.87011e-05
2.87003e-05
2.83355e-05
2.89914e-05
2.87018e-05
2.87019e-05
2.83364e-05
2.89925e-05
2.8702e-05
2.87019e-05
2.83362e-05
2.89924e-05
2.8702e-05
2.87018e-05
2.83362e-05
2.89924e-05
2.87019e-05
2.87018e-05
2.83362e-05
2.89924e-05
2.8702e-05
2.87018e-05
2.83362e-05
2.89924e-05
2.87019e-05
2.87019e-05
2.83362e-05
2.89924e-05
2.87019e-05
2.87018e-05
2.83362e-05
2.89924e-05
2.87019e-05
2.87019e-05
2.83362e-05
2.89924e-05
2.87019e-05
2.87018e-05
2.83362e-05
2.89924e-05
2.87019e-05
2.87019e-05
2.83362e-05
2.89924e-05
2.8702e-05
2.87018e-05
2.83362e-05
2.89924e-05
2.87019e-05
2.87019e-05
2.83362e-05
2.89924e-05
2.87019e-05
2.87018e-05
2.83362e-05
2.89924e-05
2.87019e-05
2.87018e-05
2.83362e-05
2.89924e-05
2.8702e-05
2.87018e-05
2.83362e-05
2.89924e-05
2.8702e-05
2.87019e-05
2.83362e-05
2.89924e-05
2.87019e-05
2.87018e-05
2.83362e-05
2.89924e-05
2.87019e-05
2.87018e-05
2.83362e-05
2.89924e-05
2.8702e-05
2.87019e-05
2.83362e-05
2.89924e-05
2.8702e-05
2.87019e-05
2.83362e-05
2.89924e-05
2.87019e-05
2.87019e-05
2.83361e-05
2.89924e-05
2.8702e-05
2.87019e-05
2.83362e-05
2.89925e-05
2.87029e-05
2.87028e-05
2.83369e-05
2.90006e-05
2.87341e-05
2.87342e-05
2.83947e-05
2.83699e-05
2.87324e-05
2.87323e-05
2.83708e-05
2.87311e-05
2.8731e-05
2.87318e-05
2.8732e-05
2.83701e-05
2.8732e-05
2.87323e-05
2.83694e-05
2.8369e-05
2.83669e-05
2.87324e-05
2.87345e-05
2.87313e-05
2.87335e-05
2.83694e-05
2.83695e-05
2.87311e-05
2.8731e-05
2.87295e-05
2.87296e-05
2.87342e-05
2.87306e-05
2.87332e-05
2.83691e-05
2.83671e-05
2.87345e-05
2.87323e-05
2.87335e-05
2.83694e-05
2.83656e-05
2.83629e-05
2.87312e-05
2.8733e-05
2.87276e-05
2.87242e-05
2.83678e-05
2.8356e-05
2.87306e-05
2.87307e-05
2.87278e-05
2.8728e-05
2.87327e-05
2.87235e-05
2.87236e-05
2.83659e-05
2.83635e-05
2.87331e-05
2.87285e-05
2.87249e-05
2.83571e-05
2.8359e-05
2.83397e-05
2.87233e-05
2.87152e-05
2.86983e-05
2.86965e-05
2.83469e-05
2.83387e-05
2.87239e-05
2.87242e-05
2.86986e-05
2.86981e-05
2.87138e-05
2.86966e-05
2.86961e-05
2.83597e-05
2.83393e-05
2.87157e-05
2.86983e-05
2.86968e-05
2.83382e-05
2.834e-05
2.83386e-05
2.86979e-05
2.86974e-05
2.86969e-05
2.86972e-05
2.83393e-05
2.83388e-05
2.86981e-05
2.86975e-05
2.86971e-05
2.86964e-05
2.8697e-05
2.86984e-05
2.86969e-05
2.83396e-05
2.83383e-05
2.86975e-05
2.86974e-05
2.86973e-05
2.83373e-05
2.83396e-05
2.83409e-05
2.86994e-05
2.86998e-05
2.86996e-05
2.87001e-05
2.83398e-05
2.8341e-05
2.86996e-05
2.86989e-05
2.86999e-05
2.86992e-05
2.86995e-05
2.87009e-05
2.86998e-05
2.83392e-05
2.83404e-05
2.86998e-05
2.87e-05
2.87001e-05
2.83392e-05
2.83419e-05
2.83416e-05
2.8702e-05
2.87024e-05
2.87016e-05
2.8702e-05
2.83419e-05
2.83416e-05
2.87021e-05
2.87016e-05
2.87017e-05
2.87015e-05
2.8702e-05
2.87019e-05
2.87019e-05
2.83413e-05
2.83414e-05
2.87021e-05
2.87019e-05
2.8702e-05
2.83405e-05
2.83425e-05
2.83417e-05
2.87029e-05
2.87034e-05
2.8702e-05
2.87018e-05
2.83423e-05
2.83416e-05
2.8703e-05
2.87027e-05
2.87021e-05
2.87018e-05
2.87035e-05
2.87023e-05
2.87015e-05
2.83422e-05
2.83414e-05
2.87036e-05
2.87021e-05
2.87016e-05
2.83402e-05
2.83425e-05
2.83417e-05
2.87031e-05
2.8703e-05
2.87019e-05
2.87019e-05
2.83424e-05
2.83416e-05
2.87032e-05
2.87029e-05
2.87021e-05
2.87017e-05
2.87026e-05
2.87022e-05
2.87016e-05
2.83422e-05
2.83414e-05
2.87028e-05
2.8702e-05
2.87018e-05
2.83402e-05
2.83425e-05
2.83417e-05
2.8703e-05
2.8703e-05
2.87019e-05
2.87019e-05
2.83424e-05
2.83416e-05
2.87032e-05
2.87029e-05
2.87021e-05
2.87018e-05
2.87027e-05
2.87021e-05
2.87016e-05
2.83422e-05
2.83414e-05
2.87028e-05
2.8702e-05
2.87018e-05
2.83402e-05
2.83425e-05
2.83417e-05
2.8703e-05
2.8703e-05
2.87019e-05
2.87019e-05
2.83424e-05
2.83416e-05
2.87032e-05
2.87029e-05
2.87021e-05
2.87017e-05
2.87027e-05
2.87022e-05
2.87016e-05
2.83422e-05
2.83414e-05
2.87029e-05
2.8702e-05
2.87017e-05
2.83402e-05
2.83425e-05
2.83417e-05
2.8703e-05
2.8703e-05
2.87019e-05
2.87019e-05
2.83424e-05
2.83416e-05
2.87032e-05
2.87029e-05
2.87021e-05
2.87017e-05
2.87027e-05
2.87021e-05
2.87016e-05
2.83422e-05
2.83414e-05
2.87028e-05
2.87022e-05
2.87017e-05
2.83402e-05
2.83425e-05
2.83417e-05
2.8703e-05
2.87031e-05
2.87019e-05
2.87019e-05
2.83424e-05
2.83416e-05
2.87032e-05
2.87029e-05
2.87021e-05
2.87017e-05
2.87027e-05
2.87021e-05
2.87016e-05
2.83422e-05
2.83414e-05
2.87028e-05
2.8702e-05
2.87018e-05
2.83402e-05
2.83425e-05
2.83417e-05
2.8703e-05
2.8703e-05
2.87019e-05
2.87019e-05
2.83424e-05
2.83416e-05
2.87032e-05
2.87029e-05
2.87021e-05
2.87017e-05
2.87027e-05
2.87022e-05
2.87016e-05
2.83422e-05
2.83414e-05
2.87029e-05
2.87022e-05
2.87018e-05
2.83402e-05
2.83425e-05
2.83417e-05
2.8703e-05
2.8703e-05
2.87019e-05
2.87019e-05
2.83424e-05
2.83415e-05
2.87032e-05
2.87029e-05
2.87021e-05
2.87018e-05
2.87027e-05
2.8702e-05
2.87016e-05
2.83422e-05
2.83414e-05
2.87029e-05
2.8702e-05
2.87017e-05
2.83402e-05
2.83425e-05
2.83417e-05
2.8703e-05
2.8703e-05
2.87019e-05
2.87019e-05
2.83423e-05
2.83415e-05
2.87032e-05
2.87029e-05
2.87021e-05
2.87017e-05
2.87027e-05
2.87021e-05
2.87016e-05
2.83422e-05
2.83414e-05
2.87028e-05
2.87022e-05
2.87018e-05
2.83402e-05
2.83425e-05
2.83417e-05
2.8703e-05
2.8703e-05
2.87019e-05
2.87019e-05
2.83423e-05
2.83416e-05
2.87032e-05
2.87029e-05
2.87021e-05
2.87017e-05
2.87027e-05
2.87023e-05
2.87016e-05
2.83422e-05
2.83414e-05
2.87029e-05
2.8702e-05
2.87017e-05
2.83402e-05
2.83425e-05
2.83417e-05
2.8703e-05
2.8703e-05
2.87019e-05
2.87019e-05
2.83424e-05
2.83416e-05
2.87032e-05
2.87029e-05
2.87021e-05
2.87017e-05
2.87027e-05
2.87021e-05
2.87016e-05
2.83422e-05
2.83414e-05
2.87028e-05
2.87022e-05
2.87018e-05
2.83402e-05
2.83425e-05
2.83417e-05
2.8703e-05
2.8703e-05
2.87019e-05
2.87019e-05
2.83423e-05
2.83415e-05
2.87032e-05
2.87029e-05
2.87021e-05
2.87017e-05
2.87027e-05
2.87021e-05
2.87016e-05
2.83422e-05
2.83414e-05
2.87028e-05
2.8702e-05
2.87018e-05
2.83402e-05
2.83425e-05
2.83417e-05
2.8703e-05
2.8703e-05
2.87019e-05
2.87019e-05
2.83423e-05
2.83415e-05
2.87032e-05
2.87029e-05
2.87021e-05
2.87017e-05
2.87027e-05
2.87021e-05
2.87016e-05
2.83422e-05
2.83414e-05
2.87028e-05
2.8702e-05
2.87018e-05
2.83402e-05
2.83425e-05
2.83417e-05
2.8703e-05
2.8703e-05
2.87019e-05
2.87019e-05
2.83423e-05
2.83416e-05
2.87032e-05
2.87029e-05
2.87021e-05
2.87018e-05
2.87027e-05
2.87023e-05
2.87016e-05
2.83422e-05
2.83414e-05
2.87028e-05
2.87021e-05
2.87018e-05
2.83402e-05
2.83425e-05
2.83417e-05
2.8703e-05
2.8703e-05
2.87019e-05
2.87019e-05
2.83424e-05
2.83416e-05
2.87032e-05
2.87029e-05
2.87021e-05
2.87017e-05
2.87027e-05
2.87023e-05
2.87016e-05
2.83422e-05
2.83414e-05
2.87029e-05
2.87021e-05
2.87018e-05
2.83402e-05
2.83425e-05
2.83417e-05
2.8703e-05
2.8703e-05
2.87019e-05
2.87019e-05
2.83424e-05
2.83416e-05
2.87032e-05
2.87029e-05
2.87021e-05
2.87017e-05
2.87027e-05
2.8702e-05
2.87016e-05
2.83422e-05
2.83414e-05
2.87029e-05
2.8702e-05
2.87017e-05
2.83402e-05
2.83425e-05
2.83417e-05
2.8703e-05
2.8703e-05
2.87019e-05
2.87019e-05
2.83424e-05
2.83416e-05
2.87032e-05
2.87029e-05
2.87021e-05
2.87018e-05
2.87027e-05
2.87022e-05
2.87016e-05
2.83422e-05
2.83414e-05
2.87028e-05
2.8702e-05
2.87017e-05
2.83402e-05
2.83425e-05
2.83417e-05
2.8703e-05
2.8703e-05
2.87019e-05
2.87019e-05
2.83424e-05
2.83416e-05
2.87032e-05
2.87029e-05
2.87021e-05
2.87018e-05
2.87027e-05
2.87022e-05
2.87016e-05
2.83422e-05
2.83414e-05
2.87028e-05
2.87022e-05
2.87018e-05
2.83402e-05
2.83425e-05
2.83417e-05
2.8703e-05
2.8703e-05
2.87019e-05
2.87019e-05
2.83424e-05
2.83415e-05
2.87032e-05
2.87029e-05
2.87021e-05
2.87017e-05
2.87027e-05
2.87022e-05
2.87016e-05
2.83422e-05
2.83414e-05
2.87029e-05
2.8702e-05
2.87017e-05
2.83402e-05
2.83425e-05
2.83416e-05
2.8703e-05
2.8703e-05
2.87019e-05
2.87019e-05
2.83423e-05
2.83415e-05
2.87032e-05
2.87029e-05
2.8702e-05
2.87017e-05
2.87027e-05
2.8702e-05
2.87016e-05
2.83422e-05
2.83413e-05
2.87028e-05
2.8702e-05
2.87017e-05
2.83402e-05
2.83424e-05
2.83416e-05
2.8703e-05
2.8703e-05
2.87019e-05
2.87019e-05
2.83423e-05
2.83414e-05
2.87032e-05
2.87029e-05
2.87021e-05
2.87018e-05
2.87027e-05
2.87022e-05
2.87016e-05
2.83421e-05
2.83412e-05
2.87028e-05
2.8702e-05
2.87018e-05
2.83402e-05
2.83425e-05
2.83419e-05
2.87031e-05
2.87031e-05
2.87023e-05
2.87023e-05
2.83423e-05
2.83418e-05
2.87032e-05
2.87029e-05
2.87025e-05
2.87022e-05
2.87028e-05
2.87032e-05
2.87021e-05
2.83421e-05
2.83416e-05
2.87029e-05
2.87031e-05
2.87023e-05
2.83405e-05
2.83429e-05
2.83658e-05
2.8703e-05
2.87033e-05
2.87233e-05
2.87234e-05
2.83427e-05
2.83658e-05
2.87032e-05
2.87031e-05
2.87234e-05
2.87233e-05
2.87032e-05
2.87241e-05
2.87229e-05
2.83426e-05
2.83657e-05
2.87034e-05
2.87242e-05
2.87231e-05
2.83639e-05
2.83978e-05
2.87342e-05
2.87342e-05
2.83977e-05
2.87342e-05
2.87342e-05
2.90007e-05
2.90007e-05
2.90006e-05
2.87339e-05
2.83976e-05
2.8734e-05
2.90206e-05
2.90214e-05
2.90212e-05
2.90211e-05
3.01217e-05
6.80077e-05
3.01202e-05
6.80015e-05
8.34429e-05
8.34274e-05
3.01209e-05
6.80106e-05
3.01197e-05
6.80041e-05
2.90228e-05
2.90212e-05
2.90225e-05
2.90215e-05
2.90222e-05
2.90203e-05
2.90223e-05
2.76292e-05
2.97328e-05
2.89139e-05
2.87316e-05
2.76279e-05
2.97328e-05
2.89138e-05
8.3453e-05
8.34335e-05
2.763e-05
2.8914e-05
2.97339e-05
2.87336e-05
2.76278e-05
2.8916e-05
2.97328e-05
3.3207e-05
3.32076e-05
2.83713e-05
3.32116e-05
3.32123e-05
3.01288e-05
6.8002e-05
3.01284e-05
6.79961e-05
8.34196e-05
8.34192e-05
3.01284e-05
6.8005e-05
3.01278e-05
6.7999e-05
2.90218e-05
2.90201e-05
2.9022e-05
2.9018e-05
2.90149e-05
2.90171e-05
2.9015e-05
2.76275e-05
2.97387e-05
2.89124e-05
2.87297e-05
2.76277e-05
2.97367e-05
2.89119e-05
8.34198e-05
8.34155e-05
2.76308e-05
2.89145e-05
2.97387e-05
2.87317e-05
2.76304e-05
2.89141e-05
2.97384e-05
3.32221e-05
3.32228e-05
2.83698e-05
3.3223e-05
3.32239e-05
3.01139e-05
6.80241e-05
3.01276e-05
6.8043e-05
8.34337e-05
8.34374e-05
3.01115e-05
6.80246e-05
3.01267e-05
6.80441e-05
2.90064e-05
2.90138e-05
2.90065e-05
2.89875e-05
2.89851e-05
2.89868e-05
2.8985e-05
2.76005e-05
2.97327e-05
2.88962e-05
2.87057e-05
2.76047e-05
2.97243e-05
2.88881e-05
8.34226e-05
8.34289e-05
2.76036e-05
2.89061e-05
2.97365e-05
2.87151e-05
2.76186e-05
2.8898e-05
2.97276e-05
3.32229e-05
3.32238e-05
2.83414e-05
3.3218e-05
3.32187e-05
3.01068e-05
6.80473e-05
3.01091e-05
6.80445e-05
8.34404e-05
8.34386e-05
3.01064e-05
6.80498e-05
3.01083e-05
6.80475e-05
2.89856e-05
2.89853e-05
2.89854e-05
2.8986e-05
2.89857e-05
2.89843e-05
2.89854e-05
2.75967e-05
2.97227e-05
2.88782e-05
2.86983e-05
2.75977e-05
2.97165e-05
2.88799e-05
8.34363e-05
8.34351e-05
2.75983e-05
2.88784e-05
2.97237e-05
2.86975e-05
2.75984e-05
2.88794e-05
2.97188e-05
3.32152e-05
3.32154e-05
2.83376e-05
3.32108e-05
3.32106e-05
3.00939e-05
6.80478e-05
3.01004e-05
6.8042e-05
8.34371e-05
8.34353e-05
3.00947e-05
6.80499e-05
3.00998e-05
6.80434e-05
2.89879e-05
2.89865e-05
2.89876e-05
2.89886e-05
2.89891e-05
2.89876e-05
2.89888e-05
2.75929e-05
2.97118e-05
2.88804e-05
2.87008e-05
2.75921e-05
2.97083e-05
2.88823e-05
8.3435e-05
8.34324e-05
2.75937e-05
2.88796e-05
2.97144e-05
2.86999e-05
2.75942e-05
2.88817e-05
2.97097e-05
3.32004e-05
3.31992e-05
2.83385e-05
3.31946e-05
3.31946e-05
3.00959e-05
6.80447e-05
3.00966e-05
6.80407e-05
8.3436e-05
8.34348e-05
3.00956e-05
6.80461e-05
3.00968e-05
6.80424e-05
2.89912e-05
2.89897e-05
2.89909e-05
2.8991e-05
2.8992e-05
2.89909e-05
2.89918e-05
2.75936e-05
2.97104e-05
2.88828e-05
2.8703e-05
2.75923e-05
2.97081e-05
2.88846e-05
8.34329e-05
8.34308e-05
2.75935e-05
2.88822e-05
2.97106e-05
2.87022e-05
2.75923e-05
2.88839e-05
2.97085e-05
3.31966e-05
3.31969e-05
2.83404e-05
3.31955e-05
3.31959e-05
3.00963e-05
6.80447e-05
3.00977e-05
6.80407e-05
8.34361e-05
8.34348e-05
3.00958e-05
6.80465e-05
3.00972e-05
6.80426e-05
2.89938e-05
2.8993e-05
2.89936e-05
2.89927e-05
2.89929e-05
2.8993e-05
2.89927e-05
2.75938e-05
2.97106e-05
2.88848e-05
2.8703e-05
2.75927e-05
2.97083e-05
2.88864e-05
8.3433e-05
8.34309e-05
2.75937e-05
2.88844e-05
2.97108e-05
2.8703e-05
2.75926e-05
2.88859e-05
2.97088e-05
3.31974e-05
3.31976e-05
2.83405e-05
3.31959e-05
3.31961e-05
3.00963e-05
6.80448e-05
3.00977e-05
6.80409e-05
8.34361e-05
8.34348e-05
3.00958e-05
6.80466e-05
3.00973e-05
6.80426e-05
2.89939e-05
2.8994e-05
2.89937e-05
2.89925e-05
2.89929e-05
2.89928e-05
2.89927e-05
2.75938e-05
2.97106e-05
2.8885e-05
2.87032e-05
2.75927e-05
2.97083e-05
2.88861e-05
8.3433e-05
8.34309e-05
2.75937e-05
2.8885e-05
2.9711e-05
2.8703e-05
2.75928e-05
2.88861e-05
2.97089e-05
3.31974e-05
3.31977e-05
2.83405e-05
3.31959e-05
3.31962e-05
3.00963e-05
6.80448e-05
3.00978e-05
6.80409e-05
8.34361e-05
8.34348e-05
3.00959e-05
6.80466e-05
3.00973e-05
6.80426e-05
2.89939e-05
2.89938e-05
2.89937e-05
2.89925e-05
2.89929e-05
2.89929e-05
2.89927e-05
2.75938e-05
2.97106e-05
2.8885e-05
2.87031e-05
2.75928e-05
2.97082e-05
2.88861e-05
8.3433e-05
8.34308e-05
2.75938e-05
2.8885e-05
2.9711e-05
2.8703e-05
2.75928e-05
2.88861e-05
2.97089e-05
3.31975e-05
3.31979e-05
2.83405e-05
3.3196e-05
3.31965e-05
3.00964e-05
6.80449e-05
3.00978e-05
6.80409e-05
8.3436e-05
8.34348e-05
3.00959e-05
6.80466e-05
3.00974e-05
6.80426e-05
2.89939e-05
2.89939e-05
2.89937e-05
2.89925e-05
2.89929e-05
2.89929e-05
2.89927e-05
2.75938e-05
2.97106e-05
2.88851e-05
2.87031e-05
2.75928e-05
2.97083e-05
2.88862e-05
8.3433e-05
8.34308e-05
2.75939e-05
2.8885e-05
2.9711e-05
2.8703e-05
2.7593e-05
2.88861e-05
2.97089e-05
3.31975e-05
3.31981e-05
2.83405e-05
3.3196e-05
3.31966e-05
3.00963e-05
6.80449e-05
3.00978e-05
6.8041e-05
8.34361e-05
8.34348e-05
3.00959e-05
6.80466e-05
3.00973e-05
6.80426e-05
2.89939e-05
2.89938e-05
2.89937e-05
2.89925e-05
2.89929e-05
2.89929e-05
2.89927e-05
2.75938e-05
2.97106e-05
2.8885e-05
2.87031e-05
2.75927e-05
2.97083e-05
2.88861e-05
8.3433e-05
8.34308e-05
2.75941e-05
2.8885e-05
2.9711e-05
2.8703e-05
2.75931e-05
2.88861e-05
2.97089e-05
3.31975e-05
3.3198e-05
2.83405e-05
3.3196e-05
3.31964e-05
3.00963e-05
6.80448e-05
3.00977e-05
6.80408e-05
8.34361e-05
8.34349e-05
3.00958e-05
6.80466e-05
3.00973e-05
6.80426e-05
2.89939e-05
2.89938e-05
2.89937e-05
2.89925e-05
2.89929e-05
2.89929e-05
2.89927e-05
2.75938e-05
2.97106e-05
2.88851e-05
2.87031e-05
2.75928e-05
2.97083e-05
2.88862e-05
8.3433e-05
8.34308e-05
2.7594e-05
2.8885e-05
2.9711e-05
2.87031e-05
2.75931e-05
2.88861e-05
2.97089e-05
3.31975e-05
3.31978e-05
2.83405e-05
3.3196e-05
3.31963e-05
3.00963e-05
6.80447e-05
3.00977e-05
6.80407e-05
8.34361e-05
8.34348e-05
3.00959e-05
6.80466e-05
3.00973e-05
6.80426e-05
2.89939e-05
2.89938e-05
2.89937e-05
2.89925e-05
2.89929e-05
2.89929e-05
2.89927e-05
2.75938e-05
2.97106e-05
2.8885e-05
2.87031e-05
2.75928e-05
2.97083e-05
2.88861e-05
8.3433e-05
8.34309e-05
2.75939e-05
2.8885e-05
2.97109e-05
2.8703e-05
2.7593e-05
2.88861e-05
2.97088e-05
3.31975e-05
3.31979e-05
2.83405e-05
3.31959e-05
3.31963e-05
3.00963e-05
6.80446e-05
3.00977e-05
6.80409e-05
8.34361e-05
8.34348e-05
3.00959e-05
6.80466e-05
3.00973e-05
6.80426e-05
2.89939e-05
2.89939e-05
2.89937e-05
2.89925e-05
2.89929e-05
2.89929e-05
2.89927e-05
2.75938e-05
2.97106e-05
2.88851e-05
2.87031e-05
2.75928e-05
2.97083e-05
2.88862e-05
8.3433e-05
8.34309e-05
2.75938e-05
2.8885e-05
2.97109e-05
2.8703e-05
2.75929e-05
2.88861e-05
2.97088e-05
3.31974e-05
3.31978e-05
2.83405e-05
3.31959e-05
3.31963e-05
3.00963e-05
6.80449e-05
3.00977e-05
6.8041e-05
8.34361e-05
8.34348e-05
3.00958e-05
6.80466e-05
3.00973e-05
6.80426e-05
2.89939e-05
2.89939e-05
2.89937e-05
2.89925e-05
2.89929e-05
2.89929e-05
2.89927e-05
2.75937e-05
2.97106e-05
2.8885e-05
2.8703e-05
2.75928e-05
2.97082e-05
2.88861e-05
8.3433e-05
8.34308e-05
2.75936e-05
2.8885e-05
2.97109e-05
2.8703e-05
2.75927e-05
2.88861e-05
2.97088e-05
3.31974e-05
3.31979e-05
2.83405e-05
3.31959e-05
3.31965e-05
3.00963e-05
6.80448e-05
3.00978e-05
6.80409e-05
8.34361e-05
8.34348e-05
3.00959e-05
6.80466e-05
3.00972e-05
6.80426e-05
2.89939e-05
2.89939e-05
2.89937e-05
2.89925e-05
2.89929e-05
2.89929e-05
2.89927e-05
2.75938e-05
2.97106e-05
2.88851e-05
2.87031e-05
2.75927e-05
2.97083e-05
2.88861e-05
8.3433e-05
8.34308e-05
2.75936e-05
2.8885e-05
2.97109e-05
2.8703e-05
2.75926e-05
2.88861e-05
2.97088e-05
3.31975e-05
3.3198e-05
2.83405e-05
3.3196e-05
3.31965e-05
3.00963e-05
6.80449e-05
3.00978e-05
6.80407e-05
8.3436e-05
8.34348e-05
3.00959e-05
6.80466e-05
3.00973e-05
6.80426e-05
2.89939e-05
2.89938e-05
2.89937e-05
2.89925e-05
2.89929e-05
2.89929e-05
2.89927e-05
2.75938e-05
2.97106e-05
2.8885e-05
2.87031e-05
2.75927e-05
2.97083e-05
2.88861e-05
8.3433e-05
8.34308e-05
2.75936e-05
2.8885e-05
2.97109e-05
2.8703e-05
2.75926e-05
2.88861e-05
2.97089e-05
3.31975e-05
3.31979e-05
2.83405e-05
3.3196e-05
3.31964e-05
3.00963e-05
6.80447e-05
3.00978e-05
6.80407e-05
8.3436e-05
8.34348e-05
3.00964e-05
6.80465e-05
3.00976e-05
6.80428e-05
2.89939e-05
2.89939e-05
2.89937e-05
2.89925e-05
2.89929e-05
2.89929e-05
2.89927e-05
2.75938e-05
2.97106e-05
2.88851e-05
2.87031e-05
2.75927e-05
2.97082e-05
2.88862e-05
8.3433e-05
8.34308e-05
2.75936e-05
2.8885e-05
2.97109e-05
2.87031e-05
2.75926e-05
2.88861e-05
2.97089e-05
3.31975e-05
3.31979e-05
2.83405e-05
3.3196e-05
3.31964e-05
3.00963e-05
6.80447e-05
3.00978e-05
6.80408e-05
8.34361e-05
8.34348e-05
3.00955e-05
6.80474e-05
3.00971e-05
6.80436e-05
2.89939e-05
2.89938e-05
2.89937e-05
2.89925e-05
2.89929e-05
2.89929e-05
2.89927e-05
2.75938e-05
2.97106e-05
2.8885e-05
2.87031e-05
2.75927e-05
2.97083e-05
2.88861e-05
8.3433e-05
8.34308e-05
2.75936e-05
2.8885e-05
2.97109e-05
2.8703e-05
2.75926e-05
2.88861e-05
2.97088e-05
3.31975e-05
3.31978e-05
2.83405e-05
3.3196e-05
3.31963e-05
3.00963e-05
6.80448e-05
3.00977e-05
6.80409e-05
8.34361e-05
8.34348e-05
3.00958e-05
6.80477e-05
3.00972e-05
6.80437e-05
2.89939e-05
2.89938e-05
2.89937e-05
2.89925e-05
2.89929e-05
2.89929e-05
2.89927e-05
2.75938e-05
2.97106e-05
2.8885e-05
2.87031e-05
2.75927e-05
2.97083e-05
2.88861e-05
8.3433e-05
8.34308e-05
2.75936e-05
2.8885e-05
2.97109e-05
2.8703e-05
2.75926e-05
2.88861e-05
2.97088e-05
3.31975e-05
3.3198e-05
2.83405e-05
3.3196e-05
3.31965e-05
3.00963e-05
6.80449e-05
3.00978e-05
6.8041e-05
8.34361e-05
8.34348e-05
3.00958e-05
6.80477e-05
3.00973e-05
6.80438e-05
2.89939e-05
2.89939e-05
2.89937e-05
2.89925e-05
2.89929e-05
2.89929e-05
2.89927e-05
2.75938e-05
2.97106e-05
2.88851e-05
2.87031e-05
2.75927e-05
2.97082e-05
2.88862e-05
8.3433e-05
8.34309e-05
2.75936e-05
2.8885e-05
2.97109e-05
2.8703e-05
2.75926e-05
2.88861e-05
2.97088e-05
3.31975e-05
3.3198e-05
2.83405e-05
3.3196e-05
3.31964e-05
3.00963e-05
6.80449e-05
3.00977e-05
6.8041e-05
8.34361e-05
8.34348e-05
3.00958e-05
6.80477e-05
3.00972e-05
6.8044e-05
2.89939e-05
2.89939e-05
2.89937e-05
2.89925e-05
2.89929e-05
2.89929e-05
2.89927e-05
2.75937e-05
2.97106e-05
2.8885e-05
2.87032e-05
2.75927e-05
2.97083e-05
2.88861e-05
8.3433e-05
8.34309e-05
2.75936e-05
2.8885e-05
2.9711e-05
2.8703e-05
2.75926e-05
2.88861e-05
2.97089e-05
3.31975e-05
3.31979e-05
2.83405e-05
3.3196e-05
3.31964e-05
3.00963e-05
6.80449e-05
3.00978e-05
6.8041e-05
8.34361e-05
8.34348e-05
3.0096e-05
6.80478e-05
3.00973e-05
6.80439e-05
2.89939e-05
2.89938e-05
2.89937e-05
2.89925e-05
2.89929e-05
2.89929e-05
2.89927e-05
2.75938e-05
2.97106e-05
2.8885e-05
2.8703e-05
2.75927e-05
2.97083e-05
2.88861e-05
8.3433e-05
8.34308e-05
2.75936e-05
2.8885e-05
2.9711e-05
2.8703e-05
2.75926e-05
2.88861e-05
2.97089e-05
3.31975e-05
3.3198e-05
2.83405e-05
3.3196e-05
3.31964e-05
3.00963e-05
6.80449e-05
3.00977e-05
6.8041e-05
8.34361e-05
8.34349e-05
3.00965e-05
6.80479e-05
3.00977e-05
6.8044e-05
2.89939e-05
2.89938e-05
2.89937e-05
2.89925e-05
2.89929e-05
2.89929e-05
2.89927e-05
2.75938e-05
2.97106e-05
2.88851e-05
2.87031e-05
2.75927e-05
2.97083e-05
2.88861e-05
8.3433e-05
8.34309e-05
2.75936e-05
2.8885e-05
2.9711e-05
2.8703e-05
2.75926e-05
2.88861e-05
2.97088e-05
3.31975e-05
3.31979e-05
2.83405e-05
3.31959e-05
3.31964e-05
3.00964e-05
6.8045e-05
3.00978e-05
6.80431e-05
8.34359e-05
8.34362e-05
3.00957e-05
6.8048e-05
3.00972e-05
6.80462e-05
2.89939e-05
2.89938e-05
2.89937e-05
2.89925e-05
2.89929e-05
2.89929e-05
2.89927e-05
2.75938e-05
2.97104e-05
2.88851e-05
2.87031e-05
2.75927e-05
2.97076e-05
2.88862e-05
8.34329e-05
8.34327e-05
2.75936e-05
2.8885e-05
2.97107e-05
2.87031e-05
2.75926e-05
2.88861e-05
2.97081e-05
3.31975e-05
3.31979e-05
2.83405e-05
3.31957e-05
3.31961e-05
3.00974e-05
6.8047e-05
3.0099e-05
6.8053e-05
8.34312e-05
8.34393e-05
3.00977e-05
6.80501e-05
3.00988e-05
6.8056e-05
2.89939e-05
2.89938e-05
2.89937e-05
2.89925e-05
2.89929e-05
2.89929e-05
2.89927e-05
2.75938e-05
2.97088e-05
2.88851e-05
2.87031e-05
2.75929e-05
2.97033e-05
2.88862e-05
8.34293e-05
8.34381e-05
2.75933e-05
2.8885e-05
2.97091e-05
2.8703e-05
2.75924e-05
2.88861e-05
2.97038e-05
3.31983e-05
3.31987e-05
2.83405e-05
3.3198e-05
3.31984e-05
3.01001e-05
6.80477e-05
3.01032e-05
6.80572e-05
8.33957e-05
8.34198e-05
3.01003e-05
6.80506e-05
3.01031e-05
6.80612e-05
2.89939e-05
2.89938e-05
2.89937e-05
2.89925e-05
2.89929e-05
2.89929e-05
2.89927e-05
2.75942e-05
2.97076e-05
2.88851e-05
2.8703e-05
2.75935e-05
2.96986e-05
2.88861e-05
8.33962e-05
8.34203e-05
2.75937e-05
2.8885e-05
2.9708e-05
2.8703e-05
2.7593e-05
2.88861e-05
2.96997e-05
3.32055e-05
3.32055e-05
2.83404e-05
3.31989e-05
3.3199e-05
3.01007e-05
6.80269e-05
3.01027e-05
6.80467e-05
8.33535e-05
8.33993e-05
3.01011e-05
6.80338e-05
3.01027e-05
6.80526e-05
2.89939e-05
2.89939e-05
2.89937e-05
2.89927e-05
2.89931e-05
2.8993e-05
2.89929e-05
2.7596e-05
2.9719e-05
2.88851e-05
2.87032e-05
2.75946e-05
2.97136e-05
2.88862e-05
8.33554e-05
8.34003e-05
2.75961e-05
2.88851e-05
2.97202e-05
2.87031e-05
2.75945e-05
2.88862e-05
2.97149e-05
3.32047e-05
3.32049e-05
2.83405e-05
3.31928e-05
3.31929e-05
3.01027e-05
6.79688e-05
3.00997e-05
6.79914e-05
8.33119e-05
8.33695e-05
3.01039e-05
6.79731e-05
3.01002e-05
6.79955e-05
2.89942e-05
2.89941e-05
2.8994e-05
2.89949e-05
2.89953e-05
2.89952e-05
2.8995e-05
2.75962e-05
2.9754e-05
2.88863e-05
2.87062e-05
2.75957e-05
2.97252e-05
2.88863e-05
8.3312e-05
8.33692e-05
2.75962e-05
2.88863e-05
2.97547e-05
2.87062e-05
2.75956e-05
2.88863e-05
2.97258e-05
3.31864e-05
3.31864e-05
2.83437e-05
3.31557e-05
3.31553e-05
2.83562e-05
6.60796e-05
3.00894e-05
5.30074e-05
7.79829e-05
4.60275e-05
2.83568e-05
6.60881e-05
3.00909e-05
5.30143e-05
2.90718e-05
2.90516e-05
2.90516e-05
2.89701e-05
2.90713e-05
2.90421e-05
2.90421e-05
2.76255e-05
2.96492e-05
2.89029e-05
2.87579e-05
2.76191e-05
3.15103e-05
2.89347e-05
7.79821e-05
4.60258e-05
2.76252e-05
2.89028e-05
2.96493e-05
2.8758e-05
2.76187e-05
2.89347e-05
3.15087e-05
3.34935e-05
3.34933e-05
2.84637e-05
3.29563e-05
3.29552e-05
8.34588e-05
8.34588e-05
3.31945e-05
3.31919e-05
6.80057e-05
3.01178e-05
6.801e-05
6.80133e-05
3.01179e-05
2.97314e-05
2.89148e-05
2.76288e-05
2.87323e-05
2.97324e-05
2.89156e-05
2.97354e-05
2.76287e-05
8.34452e-05
8.34651e-05
2.83708e-05
3.32035e-05
3.31988e-05
3.31973e-05
3.31933e-05
8.34421e-05
8.34623e-05
6.80086e-05
3.01176e-05
2.97306e-05
2.89134e-05
2.76284e-05
6.80082e-05
3.01174e-05
2.89135e-05
2.97324e-05
2.76282e-05
2.76309e-05
2.87321e-05
2.973e-05
2.8914e-05
2.97336e-05
2.89142e-05
2.76279e-05
3.01193e-05
6.80077e-05
6.80114e-05
3.01191e-05
2.76313e-05
2.87321e-05
2.89148e-05
2.97309e-05
2.89148e-05
2.9734e-05
2.76297e-05
3.0119e-05
6.80095e-05
6.80133e-05
3.01189e-05
8.34555e-05
3.3194e-05
3.31959e-05
8.34589e-05
2.89141e-05
2.97314e-05
2.76278e-05
2.87323e-05
2.89156e-05
2.97312e-05
2.97343e-05
2.7628e-05
6.80095e-05
3.01188e-05
6.80115e-05
6.80152e-05
3.01179e-05
2.83701e-05
3.3203e-05
3.32036e-05
3.31966e-05
3.31971e-05
8.34457e-05
8.34654e-05
8.34458e-05
8.34654e-05
8.34561e-05
8.34361e-05
8.3456e-05
8.34362e-05
3.31993e-05
3.31961e-05
2.83692e-05
3.3205e-05
3.32005e-05
8.34212e-05
8.34344e-05
8.34214e-05
8.34346e-05
2.83673e-05
3.32126e-05
3.3208e-05
3.32087e-05
3.32037e-05
3.01236e-05
6.801e-05
3.01233e-05
6.80067e-05
2.76306e-05
2.97372e-05
2.89148e-05
2.87322e-05
2.76336e-05
2.9734e-05
2.89147e-05
2.76312e-05
2.97384e-05
2.89156e-05
2.87345e-05
2.76316e-05
2.97357e-05
2.89154e-05
3.01269e-05
6.80001e-05
6.80013e-05
3.01264e-05
3.01288e-05
6.80045e-05
6.80067e-05
3.01281e-05
2.76335e-05
2.87317e-05
2.97364e-05
2.89138e-05
2.97398e-05
2.89143e-05
2.76312e-05
2.76353e-05
2.87342e-05
2.97384e-05
2.89142e-05
2.97417e-05
2.89149e-05
2.7632e-05
3.32078e-05
3.32035e-05
2.83708e-05
3.32113e-05
3.32073e-05
8.34406e-05
8.34237e-05
8.34192e-05
8.34282e-05
2.83694e-05
3.32178e-05
3.32142e-05
3.32146e-05
3.32114e-05
8.34163e-05
8.34249e-05
2.76293e-05
2.97364e-05
2.89134e-05
2.87308e-05
2.7633e-05
2.97323e-05
2.89131e-05
3.01225e-05
6.80087e-05
3.01224e-05
6.80083e-05
2.76286e-05
2.89134e-05
2.97385e-05
2.87308e-05
2.76322e-05
2.89132e-05
2.97347e-05
3.01259e-05
6.80028e-05
6.80039e-05
3.01259e-05
2.76321e-05
2.87296e-05
2.97348e-05
2.89122e-05
2.97381e-05
2.89122e-05
2.76308e-05
3.01274e-05
6.80064e-05
6.80084e-05
3.01272e-05
2.76324e-05
2.87296e-05
2.89124e-05
2.97372e-05
2.89124e-05
2.97406e-05
2.76319e-05
3.01237e-05
6.80079e-05
3.01242e-05
6.80048e-05
2.76303e-05
2.89167e-05
2.97368e-05
2.87342e-05
2.76331e-05
2.89166e-05
2.97345e-05
3.01237e-05
6.80093e-05
3.0124e-05
6.80061e-05
2.76316e-05
2.87311e-05
2.9736e-05
2.89128e-05
2.9739e-05
2.89132e-05
2.76278e-05
3.01286e-05
6.80018e-05
6.80045e-05
3.01272e-05
2.76328e-05
2.8734e-05
2.89153e-05
2.97374e-05
2.8916e-05
2.97405e-05
2.76306e-05
3.01286e-05
6.80037e-05
6.80058e-05
3.01271e-05
3.31996e-05
3.32007e-05
2.83691e-05
3.3205e-05
3.32065e-05
8.34562e-05
8.34367e-05
8.34196e-05
8.34328e-05
2.83671e-05
3.32126e-05
3.32153e-05
3.32092e-05
3.32104e-05
8.34224e-05
8.34351e-05
2.76312e-05
2.89156e-05
2.97372e-05
2.87344e-05
2.7631e-05
2.89155e-05
2.97351e-05
3.01237e-05
6.80095e-05
3.0124e-05
6.80079e-05
3.01235e-05
6.80114e-05
3.01229e-05
6.80081e-05
2.76331e-05
2.8733e-05
2.89149e-05
2.97358e-05
2.89155e-05
2.97386e-05
2.76304e-05
2.76356e-05
2.87342e-05
2.89144e-05
2.97386e-05
2.8915e-05
2.97413e-05
2.76321e-05
3.01287e-05
6.80071e-05
6.80078e-05
3.01279e-05
3.01284e-05
6.80056e-05
6.80082e-05
3.01281e-05
8.34435e-05
8.34272e-05
8.34435e-05
8.34272e-05
2.83699e-05
3.32193e-05
3.322e-05
3.32152e-05
3.32159e-05
8.34196e-05
8.34282e-05
8.34196e-05
8.34282e-05
8.34229e-05
8.3418e-05
8.34229e-05
8.34178e-05
3.32157e-05
3.32116e-05
2.83667e-05
3.32198e-05
3.32161e-05
8.34222e-05
8.34224e-05
8.34219e-05
8.34222e-05
2.83652e-05
3.32227e-05
3.32201e-05
3.32226e-05
3.32192e-05
3.01308e-05
6.80045e-05
3.01329e-05
6.80057e-05
2.76324e-05
2.97422e-05
2.89135e-05
2.87306e-05
2.7634e-05
2.97389e-05
2.89128e-05
2.76327e-05
2.9744e-05
2.89138e-05
2.87317e-05
2.76345e-05
2.97388e-05
2.89129e-05
3.01332e-05
6.80078e-05
6.79961e-05
3.01275e-05
3.01347e-05
6.80347e-05
6.80056e-05
3.01273e-05
2.76347e-05
2.87293e-05
2.97373e-05
2.89101e-05
2.97442e-05
2.89115e-05
2.76285e-05
2.76326e-05
2.87294e-05
2.97338e-05
2.89097e-05
2.97433e-05
2.89116e-05
2.76268e-05
3.3221e-05
3.32178e-05
2.8367e-05
3.3223e-05
3.32194e-05
8.34194e-05
8.34171e-05
8.34276e-05
8.34242e-05
2.83644e-05
3.32227e-05
3.32194e-05
3.32247e-05
3.32215e-05
8.34247e-05
8.34226e-05
2.76336e-05
2.9741e-05
2.89136e-05
2.87304e-05
2.76351e-05
2.97383e-05
2.89134e-05
3.01308e-05
6.80062e-05
3.01321e-05
6.80044e-05
2.76336e-05
2.89135e-05
2.97435e-05
2.87305e-05
2.76363e-05
2.8913e-05
2.97403e-05
3.01327e-05
6.80085e-05
6.79992e-05
3.01269e-05
2.76334e-05
2.87294e-05
2.97376e-05
2.89108e-05
2.97441e-05
2.89124e-05
2.76274e-05
3.01345e-05
6.80073e-05
6.80044e-05
3.01274e-05
2.76332e-05
2.87296e-05
2.89101e-05
2.97379e-05
2.89116e-05
2.97458e-05
2.76268e-05
3.01274e-05
6.80018e-05
3.01316e-05
6.80023e-05
2.7626e-05
2.89147e-05
2.9743e-05
2.87315e-05
2.76303e-05
2.89134e-05
2.97376e-05
3.01269e-05
6.80036e-05
3.01314e-05
6.80047e-05
2.76266e-05
2.87278e-05
2.97321e-05
2.89064e-05
2.97416e-05
2.89101e-05
2.76113e-05
3.01304e-05
6.80329e-05
6.8003e-05
3.01215e-05
2.76253e-05
2.8729e-05
2.89064e-05
2.9732e-05
2.89112e-05
2.97419e-05
2.76104e-05
3.01299e-05
6.80358e-05
6.80049e-05
3.01211e-05
3.32162e-05
3.3219e-05
2.83672e-05
3.32188e-05
3.32235e-05
8.34242e-05
8.34192e-05
8.34195e-05
8.34201e-05
2.83659e-05
3.3221e-05
3.32254e-05
3.32216e-05
3.3226e-05
8.34228e-05
8.34235e-05
2.76319e-05
2.8914e-05
2.97443e-05
2.87319e-05
2.76346e-05
2.89132e-05
2.9739e-05
3.01303e-05
6.80072e-05
3.01327e-05
6.80067e-05
3.01305e-05
6.80057e-05
3.01326e-05
6.80065e-05
2.76302e-05
2.87304e-05
2.89111e-05
2.97359e-05
2.89128e-05
2.97436e-05
2.76234e-05
2.76315e-05
2.87296e-05
2.89099e-05
2.97332e-05
2.89118e-05
2.97433e-05
2.76249e-05
3.01339e-05
6.80096e-05
6.80067e-05
3.01259e-05
3.01338e-05
6.80383e-05
6.80068e-05
3.01261e-05
8.34226e-05
8.34208e-05
8.34226e-05
8.34207e-05
2.83673e-05
3.32224e-05
3.32233e-05
3.32246e-05
3.32255e-05
8.34286e-05
8.34258e-05
8.3428e-05
8.34258e-05
8.34273e-05
8.34321e-05
8.3427e-05
8.34317e-05
3.32238e-05
3.32215e-05
2.83456e-05
3.32205e-05
3.32188e-05
8.3438e-05
8.34371e-05
8.34376e-05
8.34367e-05
2.83412e-05
3.32166e-05
3.32153e-05
3.32208e-05
3.32192e-05
3.01161e-05
6.80485e-05
3.0129e-05
6.80506e-05
2.76027e-05
2.9741e-05
2.89064e-05
2.87145e-05
2.76256e-05
2.97291e-05
2.88976e-05
2.76024e-05
2.97371e-05
2.89048e-05
2.87072e-05
2.76237e-05
2.9727e-05
2.88958e-05
3.01148e-05
6.80443e-05