/*--------------------------------*- C++ -*----------------------------------*\
| =========                 |                                                 |
| \\      /  F ield         | OpenFOAM: The Open Source CFD Toolbox           |
|  \\    /   O peration     | Version:  v1912                                 |
|   \\  /    A nd           | Website:  www.openfoam.com                      |
|    \\/     M anipulation  |                                                 |
\*---------------------------------------------------------------------------*/
FoamFile
{
    version     2.0;
    format      ascii;
    class       volScalarField;
    location    "20";
    object      nut;
}
// * * * * * * * * * * * * * * * * * * * * * * * * * * * * * * * * * * * * * //

dimensions      [0 2 -1 0 0 0 0];


internalField   nonuniform List<scalar> 
57062
(
0.000226425
0.000209228
0.00020922
0.000188967
0.00022642
0.000209202
0.000209215
0.000188949
0.000226336
0.000209013
0.000209124
0.000188716
0.000225981
0.000208835
0.000208819
0.000188626
0.000226142
0.000208982
0.000208914
0.000188655
0.000226313
0.000209059
0.00020904
0.000188737
0.000226347
0.000209068
0.000209063
0.000188741
0.000226365
0.000209071
0.000209064
0.000188738
0.000226363
0.00020907
0.000209063
0.000188739
0.000226364
0.000209069
0.000209063
0.000188739
0.000226364
0.00020907
0.000209061
0.000188739
0.000226363
0.000209069
0.000209064
0.000188739
0.000226363
0.000209069
0.000209063
0.000188739
0.000226364
0.00020907
0.000209064
0.000188739
0.000226363
0.000209068
0.000209063
0.000188739
0.000226363
0.000209069
0.000209064
0.000188739
0.000226364
0.00020907
0.000209063
0.000188738
0.000226364
0.000209069
0.000209065
0.000188738
0.000226363
0.000209069
0.000209061
0.000188738
0.000226364
0.000209069
0.000209063
0.000188739
0.000226364
0.000209071
0.000209063
0.000188739
0.000226363
0.000209071
0.000209064
0.000188739
0.000226364
0.000209069
0.000209063
0.000188739
0.000226364
0.00020907
0.000209063
0.000188738
0.000226364
0.00020907
0.000209065
0.000188738
0.000226364
0.00020907
0.000209064
0.000188739
0.000226363
0.00020907
0.000209066
0.000188739
0.000226364
0.000209075
0.00020907
0.000188743
0.000226374
0.000209074
0.000209068
0.000188763
0.000226823
0.000211611
0.00021161
0.000192068
0.000189117
0.000209207
0.000209216
0.000189143
0.000209201
0.000209198
0.000209231
0.000209214
0.000189123
0.000209223
0.000209224
0.000189123
0.000188979
0.00018907
0.000209208
0.000209229
0.000209213
0.000209221
0.000189004
0.000189112
0.000209201
0.000209199
0.000209193
0.000209192
0.000209226
0.000209203
0.000209219
0.000188986
0.000189077
0.000209236
0.000209218
0.00020923
0.000189107
0.000188933
0.000189017
0.000209199
0.000209215
0.000209154
0.000209119
0.00018897
0.000188959
0.000209198
0.00020919
0.000209176
0.000209161
0.000209212
0.000209135
0.000209109
0.000188942
0.000189029
0.000209224
0.00020918
0.000209134
0.000188962
0.000188852
0.000188794
0.000209102
0.000209012
0.000208829
0.000208811
0.00018873
0.000188799
0.000209134
0.000209122
0.000208845
0.00020883
0.000208993
0.000208833
0.000208806
0.000188866
0.000188793
0.000209025
0.000208838
0.000208822
0.000188789
0.000188684
0.000188793
0.000208829
0.000208826
0.000208852
0.000208884
0.000188689
0.000188824
0.000208844
0.000208827
0.000208862
0.00020884
0.000208823
0.000208925
0.000208891
0.000188681
0.000188787
0.000208836
0.000208863
0.000208893
0.000188801
0.000188694
0.000188902
0.000208931
0.000208965
0.000209022
0.000209028
0.000188728
0.000188915
0.00020894
0.000208916
0.000209032
0.000209009
0.00020897
0.000209055
0.000209025
0.000188688
0.000188895
0.000208974
0.000209034
0.000209036
0.000188891
0.0001888
0.000188913
0.000209046
0.000209049
0.000209049
0.000209051
0.000188809
0.000188918
0.000209055
0.000209034
0.000209057
0.000209039
0.000209045
0.000209068
0.000209051
0.000188792
0.000188909
0.000209054
0.000209062
0.00020906
0.000188902
0.000188805
0.000188913
0.000209056
0.000209061
0.000209053
0.000209047
0.000188809
0.000188919
0.000209065
0.000209047
0.000209062
0.000209042
0.000209064
0.000209073
0.000209043
0.0001888
0.000188909
0.000209072
0.000209067
0.000209052
0.000188898
0.000188806
0.000188913
0.000209059
0.000209055
0.000209052
0.000209048
0.00018881
0.000188918
0.000209068
0.000209048
0.000209061
0.000209041
0.00020905
0.000209072
0.000209045
0.000188801
0.000188909
0.000209059
0.000209065
0.000209054
0.000188899
0.000188806
0.000188913
0.000209058
0.000209055
0.000209052
0.000209048
0.00018881
0.000188919
0.000209067
0.000209048
0.000209061
0.000209042
0.000209051
0.000209071
0.000209046
0.000188801
0.000188909
0.00020906
0.000209066
0.000209055
0.000188899
0.000188806
0.000188913
0.000209059
0.000209055
0.000209052
0.000209049
0.00018881
0.000188919
0.000209067
0.000209048
0.000209061
0.000209042
0.000209052
0.000209072
0.000209045
0.000188801
0.000188909
0.000209061
0.000209063
0.000209054
0.000188899
0.000188806
0.000188913
0.000209059
0.000209055
0.000209052
0.000209049
0.000188811
0.000188919
0.000209067
0.000209048
0.000209061
0.000209041
0.000209051
0.000209071
0.000209045
0.000188801
0.000188909
0.00020906
0.000209066
0.000209054
0.000188899
0.000188805
0.000188913
0.000209058
0.000209055
0.000209052
0.000209048
0.00018881
0.000188919
0.000209067
0.000209048
0.000209061
0.000209041
0.000209051
0.000209071
0.000209046
0.000188801
0.000188909
0.00020906
0.000209065
0.000209055
0.000188899
0.000188806
0.000188913
0.000209058
0.000209055
0.000209052
0.000209048
0.00018881
0.000188919
0.000209067
0.000209048
0.000209061
0.000209041
0.000209052
0.000209072
0.000209045
0.000188801
0.000188909
0.000209061
0.000209067
0.000209055
0.000188899
0.000188806
0.000188913
0.000209058
0.000209055
0.000209052
0.000209048
0.00018881
0.000188918
0.000209067
0.000209048
0.000209061
0.000209042
0.000209051
0.000209071
0.000209045
0.000188801
0.000188909
0.000209061
0.000209065
0.000209054
0.000188899
0.000188805
0.000188913
0.000209058
0.000209054
0.000209052
0.000209048
0.00018881
0.000188918
0.000209067
0.000209048
0.000209061
0.000209041
0.000209051
0.000209071
0.000209046
0.000188801
0.000188909
0.00020906
0.000209067
0.000209055
0.000188899
0.000188805
0.000188913
0.000209058
0.000209055
0.000209052
0.000209048
0.00018881
0.000188919
0.000209067
0.000209048
0.000209061
0.000209041
0.000209052
0.000209073
0.000209045
0.000188801
0.000188909
0.000209061
0.000209065
0.000209054
0.000188898
0.000188806
0.000188913
0.000209059
0.000209055
0.000209052
0.000209048
0.00018881
0.000188918
0.000209067
0.000209048
0.000209061
0.000209041
0.000209051
0.000209071
0.000209046
0.000188801
0.000188909
0.00020906
0.000209068
0.000209054
0.000188898
0.000188806
0.000188913
0.000209058
0.000209055
0.000209052
0.000209048
0.00018881
0.000188918
0.000209067
0.000209047
0.000209061
0.000209041
0.000209052
0.000209071
0.000209045
0.000188801
0.000188908
0.00020906
0.000209061
0.000209054
0.000188899
0.000188805
0.000188913
0.000209058
0.000209054
0.000209052
0.000209048
0.00018881
0.000188918
0.000209067
0.000209048
0.000209061
0.000209041
0.000209051
0.000209071
0.000209045
0.000188801
0.000188909
0.00020906
0.000209064
0.000209054
0.000188899
0.000188806
0.000188913
0.000209058
0.000209055
0.000209052
0.000209048
0.00018881
0.000188919
0.000209067
0.000209048
0.000209061
0.000209042
0.000209051
0.000209074
0.000209046
0.000188801
0.000188909
0.00020906
0.000209066
0.000209054
0.000188899
0.000188805
0.000188913
0.000209058
0.000209055
0.000209052
0.000209048
0.000188811
0.000188919
0.000209067
0.000209048
0.000209061
0.000209041
0.000209052
0.000209074
0.000209045
0.000188801
0.000188909
0.00020906
0.000209066
0.000209054
0.000188899
0.000188806
0.000188913
0.000209058
0.000209055
0.000209052
0.000209048
0.00018881
0.000188919
0.000209067
0.000209048
0.000209061
0.000209041
0.000209051
0.00020907
0.000209045
0.000188801
0.000188908
0.00020906
0.000209065
0.000209054
0.000188899
0.000188806
0.000188913
0.000209058
0.000209055
0.000209052
0.000209048
0.00018881
0.000188919
0.000209067
0.000209048
0.000209061
0.000209041
0.000209051
0.000209072
0.000209045
0.000188801
0.000188908
0.00020906
0.000209065
0.000209054
0.000188899
0.000188805
0.000188913
0.000209058
0.000209055
0.000209052
0.000209048
0.000188811
0.000188918
0.000209068
0.000209048
0.000209061
0.000209041
0.000209051
0.000209072
0.000209045
0.000188801
0.000188909
0.00020906
0.000209067
0.000209054
0.000188898
0.000188806
0.000188913
0.000209059
0.000209055
0.000209053
0.000209049
0.00018881
0.000188918
0.000209068
0.000209048
0.000209062
0.000209042
0.000209051
0.000209072
0.000209046
0.000188801
0.000188908
0.00020906
0.000209066
0.000209055
0.000188899
0.000188806
0.000188913
0.000209059
0.000209055
0.000209054
0.00020905
0.00018881
0.000188919
0.000209068
0.000209048
0.000209063
0.000209043
0.000209052
0.000209071
0.000209047
0.000188801
0.000188909
0.000209061
0.000209067
0.000209056
0.000188899
0.000188806
0.000188915
0.00020906
0.000209057
0.000209057
0.000209054
0.000188811
0.00018892
0.00020907
0.00020905
0.000209067
0.000209047
0.000209053
0.000209076
0.000209051
0.000188802
0.00018891
0.000209063
0.000209069
0.000209061
0.000188901
0.000188809
0.000188935
0.000209064
0.000209061
0.000209086
0.000209084
0.000188813
0.00018894
0.000209074
0.000209055
0.000209095
0.000209077
0.000209058
0.000209107
0.000209081
0.000188804
0.00018893
0.000209068
0.000209102
0.000209092
0.000188919
0.000188828
0.000190288
0.000209062
0.000209064
0.000210634
0.000210633
0.000188832
0.000190293
0.000209072
0.000209056
0.000210641
0.00021063
0.000209062
0.000210655
0.000210627
0.000188824
0.000190286
0.000209073
0.000210653
0.000210636
0.000190276
0.000192093
0.000211601
0.000211601
0.000192095
0.000211606
0.000211598
0.000226823
0.000226822
0.000226821
0.000211596
0.000192091
0.000211601
0.000226425
0.000226428
0.000226421
0.00022643
4.93387e-05
4.88703e-05
4.93197e-05
4.88681e-05
2.58498e-05
2.58474e-05
4.93407e-05
4.88665e-05
4.93242e-05
4.88642e-05
0.000226424
0.000226421
0.000226433
0.000226423
0.000226425
0.000226422
0.000226439
0.000117662
6.00253e-05
0.000220629
0.000209212
0.000117632
6.00576e-05
0.000220608
2.58493e-05
2.58463e-05
0.000117668
0.000220626
6.00428e-05
0.000209229
0.000117627
0.000220633
6.00592e-05
3.59923e-05
3.59857e-05
0.000189142
3.6005e-05
3.59984e-05
4.9357e-05
4.88683e-05
4.93414e-05
4.88661e-05
2.58462e-05
2.58461e-05
4.93606e-05
4.88645e-05
4.93454e-05
4.88623e-05
0.000226418
0.000226407
0.000226412
0.000226387
0.000226345
0.000226385
0.000226328
0.000117639
6.00531e-05
0.000220601
0.000209196
0.000117616
6.00725e-05
0.000220597
2.58442e-05
2.58434e-05
0.000117656
0.000220622
6.00517e-05
0.000209211
0.000117629
0.000220618
6.00798e-05
3.60151e-05
3.6009e-05
0.000189111
3.60213e-05
3.60152e-05
4.92805e-05
4.88741e-05
4.932e-05
4.88823e-05
2.58481e-05
2.58488e-05
4.92796e-05
4.88695e-05
4.93238e-05
4.88779e-05
0.000226236
0.000226345
0.00022622
0.000226005
0.000225985
0.000226009
0.00022598
0.000117429
6.00008e-05
0.000220416
0.000208923
0.000117427
5.99941e-05
0.000220309
2.58444e-05
2.58453e-05
0.000117444
0.000220528
6.00321e-05
0.000209022
0.000117529
0.000220419
6.0015e-05
3.60035e-05
3.59981e-05
0.000188814
3.59977e-05
3.59921e-05
4.92562e-05
4.8884e-05
4.92496e-05
4.8883e-05
2.58493e-05
2.5849e-05
4.92609e-05
4.88801e-05
4.92548e-05
4.88792e-05
0.000225999
0.000225993
0.000225994
0.000226055
0.00022611
0.00022604
0.000226105
0.000117398
5.99554e-05
0.00022021
0.000208865
0.000117379
5.99637e-05
0.000220244
2.58465e-05
2.58464e-05
0.000117404
0.000220196
5.99667e-05
0.000208838
0.00011738
0.000220217
5.99768e-05
3.59845e-05
3.59783e-05
0.000188782
3.59841e-05
3.5977e-05
4.92237e-05
4.88843e-05
4.9224e-05
4.88822e-05
2.58488e-05
2.58485e-05
4.92315e-05
4.88803e-05
4.92289e-05
4.88779e-05
0.00022621
0.000226142
0.000226206
0.000226302
0.000226305
0.00022628
0.000226301
0.000117385
5.99236e-05
0.000220403
0.000209028
0.000117344
5.99446e-05
0.000220451
2.58464e-05
2.5846e-05
0.00011738
0.000220333
5.99347e-05
0.000208983
0.000117346
0.000220408
5.99503e-05
3.59631e-05
3.59541e-05
0.000188867
3.5962e-05
3.59548e-05
4.9232e-05
4.88831e-05
4.92192e-05
4.88816e-05
2.58486e-05
2.58484e-05
4.92367e-05
4.88788e-05
4.92266e-05
4.88774e-05
0.000226321
0.000226298
0.000226316
0.00022634
0.000226345
0.000226327
0.000226342
0.000117396
5.99245e-05
0.000220489
0.000209075
0.000117358
5.99465e-05
0.000220502
2.5846e-05
2.58457e-05
0.000117389
0.000220478
5.99282e-05
0.000209058
0.00011735
0.000220491
5.99498e-05
3.59598e-05
3.5953e-05
0.000188907
3.59648e-05
3.59579e-05
4.9233e-05
4.88831e-05
4.92222e-05
4.88816e-05
2.58486e-05
2.58484e-05
4.92377e-05
4.88789e-05
4.92284e-05
4.88775e-05
0.00022636
0.000226347
0.000226357
0.000226366
0.000226359
0.000226359
0.000226355
0.000117397
5.99254e-05
0.000220519
0.000209075
0.000117361
5.9947e-05
0.00022053
2.5846e-05
2.58457e-05
0.00011739
0.000220511
5.99295e-05
0.00020907
0.000117355
0.000220521
5.99508e-05
3.59612e-05
3.59542e-05
0.000188905
3.59654e-05
3.59583e-05
4.92331e-05
4.88831e-05
4.92223e-05
4.88817e-05
2.58486e-05
2.58484e-05
4.92377e-05
4.8879e-05
4.92286e-05
4.88775e-05
0.000226361
0.000226362
0.000226358
0.000226364
0.000226359
0.000226357
0.000226355
0.000117397
5.99255e-05
0.000220521
0.000209077
0.000117362
5.9947e-05
0.000220525
2.5846e-05
2.58457e-05
0.000117391
0.000220521
5.99299e-05
0.00020907
0.000117357
0.000220525
5.9951e-05
3.59613e-05
3.59543e-05
0.000188905
3.59655e-05
3.59584e-05
4.92332e-05
4.88831e-05
4.92224e-05
4.88817e-05
2.58486e-05
2.58484e-05
4.92378e-05
4.8879e-05
4.92287e-05
4.88775e-05
0.000226361
0.000226359
0.000226358
0.000226364
0.000226359
0.000226357
0.000226356
0.000117397
5.99254e-05
0.000220523
0.000209076
0.000117362
5.99469e-05
0.000220527
2.5846e-05
2.58457e-05
0.000117392
0.000220522
5.99298e-05
0.00020907
0.000117357
0.000220525
5.99509e-05
3.59614e-05
3.59546e-05
0.000188905
3.59655e-05
3.59588e-05
4.92332e-05
4.88832e-05
4.92224e-05
4.88817e-05
2.58486e-05
2.58484e-05
4.92379e-05
4.8879e-05
4.92288e-05
4.88775e-05
0.000226361
0.000226359
0.000226358
0.000226364
0.000226359
0.000226357
0.000226356
0.000117397
5.99254e-05
0.000220523
0.000209076
0.000117362
5.9947e-05
0.000220527
2.5846e-05
2.58457e-05
0.000117391
0.000220521
5.99298e-05
0.000209069
0.000117357
0.000220523
5.99509e-05
3.59614e-05
3.59549e-05
0.000188906
3.59655e-05
3.59589e-05
4.92331e-05
4.88832e-05
4.92224e-05
4.88817e-05
2.58486e-05
2.58484e-05
4.92375e-05
4.8879e-05
4.92286e-05
4.88775e-05
0.000226361
0.000226359
0.000226358
0.000226364
0.000226359
0.000226357
0.000226356
0.000117397
5.99255e-05
0.000220521
0.000209076
0.000117361
5.9947e-05
0.000220525
2.5846e-05
2.58457e-05
0.00011739
0.000220519
5.99297e-05
0.000209068
0.000117355
0.000220523
5.99509e-05
3.59614e-05
3.59546e-05
0.000188905
3.59655e-05
3.59586e-05
4.92331e-05
4.88831e-05
4.92224e-05
4.88817e-05
2.58486e-05
2.58484e-05
4.92376e-05
4.8879e-05
4.92282e-05
4.88775e-05
0.000226361
0.000226359
0.000226358
0.000226364
0.000226359
0.000226357
0.000226356
0.000117397
5.99255e-05
0.000220523
0.000209076
0.000117362
5.9947e-05
0.000220527
2.5846e-05
2.58457e-05
0.000117388
0.000220521
5.99297e-05
0.00020907
0.000117354
0.000220525
5.99508e-05
3.59614e-05
3.59545e-05
0.000188906
3.59655e-05
3.59585e-05
4.92331e-05
4.88831e-05
4.92223e-05
4.88816e-05
2.58486e-05
2.58484e-05
4.92377e-05
4.8879e-05
4.92286e-05
4.88775e-05
0.000226361
0.000226359
0.000226358
0.000226364
0.000226359
0.000226357
0.000226356
0.000117397
5.99255e-05
0.000220523
0.000209075
0.000117362
5.9947e-05
0.000220527
2.5846e-05
2.58457e-05
0.000117388
0.000220521
5.99297e-05
0.000209069
0.000117352
0.000220525
5.99508e-05
3.59613e-05
3.59545e-05
0.000188905
3.59654e-05
3.59585e-05
4.92331e-05
4.8883e-05
4.92224e-05
4.88817e-05
2.58486e-05
2.58484e-05
4.92376e-05
4.8879e-05
4.92286e-05
4.88775e-05
0.000226362
0.000226359
0.000226358
0.000226364
0.000226359
0.000226357
0.000226356
0.000117397
5.99256e-05
0.000220523
0.000209076
0.000117362
5.9947e-05
0.000220527
2.5846e-05
2.58457e-05
0.000117387
0.000220521
5.99297e-05
0.00020907
0.000117352
0.000220525
5.99508e-05
3.59613e-05
3.59544e-05
0.000188906
3.59654e-05
3.59585e-05
4.92331e-05
4.88832e-05
4.92224e-05
4.88817e-05
2.58486e-05
2.58484e-05
4.92376e-05
4.8879e-05
4.92284e-05
4.88775e-05
0.000226361
0.000226359
0.000226358
0.000226364
0.000226359
0.000226357
0.000226356
0.000117397
5.99254e-05
0.000220522
0.000209074
0.000117362
5.99469e-05
0.000220523
2.5846e-05
2.58457e-05
0.000117387
0.000220521
5.99297e-05
0.000209069
0.000117352
0.000220525
5.99508e-05
3.59613e-05
3.59546e-05
0.000188905
3.59654e-05
3.59587e-05
4.92332e-05
4.88831e-05
4.92224e-05
4.88817e-05
2.58486e-05
2.58484e-05
4.92375e-05
4.8879e-05
4.92285e-05
4.88775e-05
0.000226361
0.000226359
0.000226358
0.000226364
0.000226359
0.000226357
0.000226356
0.000117397
5.99254e-05
0.00022052
0.000209075
0.000117361
5.99469e-05
0.000220525
2.5846e-05
2.58457e-05
0.000117387
0.000220521
5.99296e-05
0.00020907
0.000117351
0.000220524
5.99508e-05
3.59613e-05
3.59547e-05
0.000188905
3.59655e-05
3.59587e-05
4.92331e-05
4.88832e-05
4.92224e-05
4.88816e-05
2.58486e-05
2.58484e-05
4.92376e-05
4.8879e-05
4.92284e-05
4.88775e-05
0.000226362
0.000226359
0.000226358
0.000226364
0.000226359
0.000226357
0.000226356
0.000117397
5.99255e-05
0.000220522
0.000209076
0.000117362
5.9947e-05
0.000220527
2.5846e-05
2.58457e-05
0.000117387
0.000220519
5.99297e-05
0.000209069
0.000117351
0.000220523
5.99508e-05
3.59614e-05
3.59546e-05
0.000188905
3.59655e-05
3.59587e-05
4.92332e-05
4.88831e-05
4.92224e-05
4.88816e-05
2.58486e-05
2.58484e-05
4.92389e-05
4.8879e-05
4.92291e-05
4.88773e-05
0.000226361
0.000226359
0.000226358
0.000226364
0.000226359
0.000226357
0.000226356
0.000117397
5.99255e-05
0.000220523
0.000209075
0.000117362
5.99469e-05
0.000220527
2.5846e-05
2.58457e-05
0.000117386
0.000220521
5.99297e-05
0.000209069
0.000117351
0.000220525
5.99508e-05
3.59614e-05
3.59546e-05
0.000188905
3.59655e-05
3.59586e-05
4.92332e-05
4.88831e-05
4.92224e-05
4.88817e-05
2.58486e-05
2.58484e-05
4.92367e-05
4.8879e-05
4.92278e-05
4.88776e-05
0.000226361
0.000226359
0.000226358
0.000226364
0.000226359
0.000226357
0.000226356
0.000117397
5.99254e-05
0.000220521
0.000209075
0.000117362
5.9947e-05
0.000220525
2.5846e-05
2.58457e-05
0.000117387
0.000220521
5.99297e-05
0.000209068
0.000117351
0.000220525
5.99508e-05
3.59614e-05
3.59545e-05
0.000188905
3.59655e-05
3.59586e-05
4.92332e-05
4.88831e-05
4.92224e-05
4.88817e-05
2.58486e-05
2.58484e-05
4.92376e-05
4.88791e-05
4.92283e-05
4.88777e-05
0.000226361
0.000226359
0.000226358
0.000226364
0.000226359
0.000226357
0.000226356
0.000117397
5.99255e-05
0.000220522
0.000209075
0.000117362
5.99469e-05
0.000220527
2.5846e-05
2.58457e-05
0.000117387
0.000220521
5.99296e-05
0.000209069
0.000117352
0.000220525
5.99507e-05
3.59614e-05
3.59547e-05
0.000188905
3.59656e-05
3.59588e-05
4.92331e-05
4.88832e-05
4.92224e-05
4.88817e-05
2.58486e-05
2.58484e-05
4.92377e-05
4.88791e-05
4.92285e-05
4.88777e-05
0.000226362
0.000226359
0.000226358
0.000226364
0.000226359
0.000226357
0.000226356
0.000117397
5.99253e-05
0.000220524
0.000209077
0.000117362
5.99469e-05
0.000220527
2.5846e-05
2.58457e-05
0.000117386
0.000220521
5.99296e-05
0.00020907
0.000117351
0.000220525
5.99508e-05
3.59614e-05
3.59547e-05
0.000188905
3.59655e-05
3.59587e-05
4.92331e-05
4.88832e-05
4.92223e-05
4.88817e-05
2.58486e-05
2.58484e-05
4.92376e-05
4.88791e-05
4.92284e-05
4.88778e-05
0.000226362
0.000226359
0.000226358
0.000226364
0.000226359
0.000226357
0.000226356
0.000117397
5.99255e-05
0.000220522
0.000209077
0.000117362
5.99469e-05
0.000220526
2.58461e-05
2.58457e-05
0.000117386
0.000220521
5.99297e-05
0.00020907
0.000117351
0.000220525
5.99509e-05
3.59614e-05
3.59546e-05
0.000188905
3.59655e-05
3.59587e-05
4.92331e-05
4.88832e-05
4.92224e-05
4.88817e-05
2.58486e-05
2.58484e-05
4.92378e-05
4.88792e-05
4.92285e-05
4.88777e-05
0.000226361
0.000226359
0.000226358
0.000226364
0.000226359
0.000226357
0.000226356
0.000117397
5.99255e-05
0.000220522
0.000209075
0.000117362
5.9947e-05
0.000220527
2.5846e-05
2.58457e-05
0.000117386
0.000220522
5.99297e-05
0.000209069
0.000117351
0.000220525
5.99509e-05
3.59614e-05
3.59547e-05
0.000188906
3.59655e-05
3.59587e-05
4.92331e-05
4.88832e-05
4.92224e-05
4.88817e-05
2.58486e-05
2.58484e-05
4.92388e-05
4.88792e-05
4.92294e-05
4.88777e-05
0.000226362
0.000226359
0.000226358
0.000226364
0.000226359
0.000226357
0.000226356
0.000117397
5.99255e-05
0.000220523
0.000209076
0.000117362
5.9947e-05
0.000220527
2.5846e-05
2.58457e-05
0.000117387
0.000220521
5.99297e-05
0.000209069
0.000117351
0.000220525
5.99508e-05
3.59614e-05
3.59546e-05
0.000188905
3.59655e-05
3.59587e-05
4.92328e-05
4.88832e-05
4.92222e-05
4.88826e-05
2.58486e-05
2.58487e-05
4.92365e-05
4.88792e-05
4.92277e-05
4.88787e-05
0.000226362
0.000226359
0.000226358
0.000226365
0.000226359
0.000226357
0.000226356
0.000117397
5.99269e-05
0.000220522
0.000209076
0.000117362
5.99477e-05
0.000220527
2.5846e-05
2.58461e-05
0.000117388
0.000220521
5.9931e-05
0.000209071
0.000117353
0.000220525
5.99515e-05
3.59619e-05
3.59551e-05
0.000188905
3.59662e-05
3.59593e-05
4.92286e-05
4.88839e-05
4.92183e-05
4.88861e-05
2.58477e-05
2.5849e-05
4.9235e-05
4.888e-05
4.9225e-05
4.88822e-05
0.000226361
0.000226359
0.000226358
0.000226364
0.000226359
0.000226357
0.000226356
0.000117396
5.99387e-05
0.000220523
0.000209077
0.000117363
5.99542e-05
0.000220527
2.58453e-05
2.58468e-05
0.000117388
0.000220521
5.99429e-05
0.000209071
0.000117354
0.000220525
5.99577e-05
3.59681e-05
3.59612e-05
0.000188905
3.59496e-05
3.59431e-05
4.92133e-05
4.88841e-05
4.92025e-05
4.88875e-05
2.58423e-05
2.58462e-05
4.92197e-05
4.88804e-05
4.921e-05
4.88841e-05
0.000226361
0.000226359
0.000226358
0.000226364
0.00022636
0.000226358
0.000226357
0.00011739
5.99582e-05
0.000220523
0.000209078
0.000117359
5.99569e-05
0.000220527
2.58403e-05
2.58441e-05
0.000117382
0.000220521
5.99618e-05
0.000209073
0.000117351
0.000220525
5.99578e-05
3.59338e-05
3.59257e-05
0.000188907
3.58979e-05
3.58905e-05
4.92099e-05
4.88766e-05
4.91971e-05
4.88836e-05
2.58358e-05
2.5843e-05
4.92163e-05
4.88745e-05
4.92046e-05
4.88812e-05
0.000226362
0.00022636
0.000226359
0.000226369
0.000226368
0.000226366
0.000226365
0.0001174
5.99573e-05
0.000220524
0.000209085
0.000117359
5.98965e-05
0.000220529
2.5834e-05
2.5841e-05
0.000117397
0.000220524
5.99562e-05
0.000209079
0.000117355
0.000220529
5.98941e-05
3.58812e-05
3.58743e-05
0.00018891
3.58222e-05
3.58152e-05
4.92916e-05
4.88591e-05
4.91796e-05
4.8887e-05
2.58314e-05
2.58496e-05
4.92943e-05
4.88558e-05
4.9186e-05
4.88842e-05
0.000226372
0.00022637
0.000226369
0.000226487
0.00022649
0.000226488
0.000226487
0.000117594
5.9898e-05
0.000220566
0.00020926
0.000117379
5.98257e-05
0.00022052
2.58292e-05
2.58475e-05
0.000117591
0.000220564
5.98919e-05
0.000209256
0.000117375
0.000220519
5.98266e-05
3.58159e-05
3.5809e-05
0.000189125
3.58013e-05
3.57963e-05
5.87936e-05
5.21718e-05
4.98079e-05
7.58891e-05
2.81658e-05
2.5441e-05
5.87957e-05
5.21705e-05
4.98093e-05
7.58991e-05
0.000230093
0.000229251
0.000229251
0.000225373
0.000230088
0.000228902
0.000228902
0.000123915
6.23349e-05
0.000221537
0.00021349
0.000119779
7.11419e-05
0.000223323
2.81641e-05
2.54396e-05
0.00012391
0.000221535
6.23365e-05
0.000213489
0.000119775
0.000223321
7.11377e-05
3.67607e-05
3.67517e-05
0.000196285
4.1039e-05
4.10351e-05
2.58533e-05
2.58514e-05
3.59804e-05
3.59687e-05
4.88696e-05
4.93265e-05
4.887e-05
4.88711e-05
4.93286e-05
6.00684e-05
0.000220629
0.000117671
0.000209216
6.00538e-05
0.000220637
6.00508e-05
0.00011767
2.58502e-05
2.58532e-05
0.000189029
3.59869e-05
3.59837e-05
3.59794e-05
3.59759e-05
2.58509e-05
2.5854e-05
4.88658e-05
4.93306e-05
6.0064e-05
0.000220618
0.000117667
4.88634e-05
4.93265e-05
0.000220619
6.00624e-05
0.000117663
0.000117663
0.000209231
6.00462e-05
0.000220631
6.00457e-05
0.000220631
0.00011766
4.93146e-05
4.88685e-05
4.88698e-05
4.93317e-05
0.000117665
0.000209214
0.000220636
6.00516e-05
0.000220633
6.00471e-05
0.000117674
4.93141e-05
4.88668e-05
4.88681e-05
4.93312e-05
2.58497e-05
3.59699e-05
3.59825e-05
2.58522e-05
0.000220626
6.00668e-05
0.000117656
0.000209223
0.000220638
6.00478e-05
6.00448e-05
0.000117662
4.88664e-05
4.93276e-05
4.88664e-05
4.88676e-05
4.93306e-05
0.000189018
3.59929e-05
3.59862e-05
3.59845e-05
3.59781e-05
2.585e-05
2.5853e-05
2.5849e-05
2.58521e-05
2.58529e-05
2.58499e-05
2.5851e-05
2.5848e-05
3.59832e-05
3.59706e-05
0.000189099
3.59933e-05
3.59789e-05
2.58476e-05
2.58496e-05
2.58457e-05
2.58477e-05
0.000188956
3.60058e-05
3.59911e-05
3.59971e-05
3.59817e-05
4.93411e-05
4.88701e-05
4.93333e-05
4.88688e-05
0.000117679
6.00622e-05
0.000220628
0.00020921
0.000117681
6.00647e-05
0.00022063
0.000117682
6.00516e-05
0.000220637
0.000209229
0.000117664
6.00658e-05
0.000220637
4.93446e-05
4.88676e-05
4.88677e-05
4.93506e-05
4.93467e-05
4.8868e-05
4.88689e-05
4.93515e-05
0.000117672
0.000209217
6.00746e-05
0.000220628
6.00633e-05
0.000220636
0.000117675
0.000117684
0.000209228
6.00783e-05
0.000220629
6.00662e-05
0.000220639
0.000117678
3.59907e-05
3.59864e-05
0.000189136
3.59972e-05
3.59939e-05
2.58507e-05
2.58481e-05
2.58461e-05
2.58475e-05
0.000188996
3.60075e-05
3.60045e-05
3.60001e-05
3.59973e-05
2.58469e-05
2.58482e-05
0.000117668
6.00553e-05
0.000220618
0.0002092
0.000117676
6.0052e-05
0.000220616
4.93391e-05
4.88636e-05
4.93318e-05
4.88634e-05
0.00011766
0.000220618
6.00547e-05
0.0002092
0.000117667
0.000220617
6.00518e-05
4.93473e-05
4.88637e-05
4.88639e-05
4.93532e-05
0.000117661
0.000209193
6.00577e-05
0.000220612
6.00475e-05
0.000220612
0.000117671
4.9346e-05
4.88629e-05
4.88638e-05
4.93529e-05
0.000117661
0.000209193
0.000220616
6.00575e-05
0.000220616
6.00473e-05
0.000117678
4.93435e-05
4.88688e-05
4.93376e-05
4.88675e-05
0.00011767
0.000220646
6.00498e-05
0.000209227
0.000117672
0.000220647
6.00653e-05
4.93436e-05
4.88669e-05
4.93372e-05
4.88656e-05
0.000117652
0.000209208
6.00724e-05
0.000220601
6.00582e-05
0.000220605
0.000117643
4.93487e-05
4.88664e-05
4.88671e-05
4.93524e-05
0.00011766
0.000209227
0.000220637
6.00778e-05
0.000220649
6.00658e-05
0.000117665
4.93488e-05
4.88647e-05
4.88651e-05
4.93523e-05
3.59728e-05
3.59852e-05
0.000189103
3.59815e-05
3.59953e-05
2.58518e-05
2.58488e-05
2.58441e-05
2.58462e-05
0.000188959
3.59926e-05
3.60092e-05
3.59847e-05
3.59992e-05
2.58466e-05
2.58486e-05
0.00011768
0.000220638
6.00457e-05
0.000209237
0.000117657
0.000220638
6.00618e-05
4.93387e-05
4.88663e-05
4.93319e-05
4.88657e-05
4.93436e-05
4.88665e-05
4.93357e-05
4.88652e-05
0.000117661
0.000209226
0.000220627
6.00689e-05
0.000220632
6.00568e-05
0.00011766
0.000117686
0.000209237
0.00022063
6.00763e-05
0.000220639
6.00625e-05
0.000117676
4.93439e-05
4.88654e-05
4.88654e-05
4.93493e-05
4.93501e-05
4.88643e-05
4.88654e-05
4.9355e-05
2.58497e-05
2.58471e-05
2.58487e-05
2.58462e-05
0.000188999
3.60168e-05
3.60105e-05
3.60083e-05
3.60019e-05
2.5846e-05
2.58473e-05
2.5845e-05
2.58463e-05
2.58478e-05
2.5847e-05
2.58459e-05
2.58451e-05
3.60088e-05
3.59949e-05
0.000189064
3.60179e-05
3.60046e-05
2.58475e-05
2.58477e-05
2.58456e-05
2.58458e-05
0.000188925
3.60185e-05
3.60067e-05
3.60199e-05
3.60071e-05
4.93589e-05
4.88682e-05
4.93565e-05
4.88682e-05
0.000117679
6.00746e-05
0.000220607
0.000209191
0.000117668
6.00861e-05
0.000220596
0.000117676
6.00764e-05
0.000220605
0.000209199
0.000117667
6.0077e-05
0.000220592
4.93606e-05
4.8869e-05
4.88658e-05
4.93424e-05
4.93618e-05
4.88764e-05
4.8868e-05
4.93413e-05
0.000117667
0.000209174
6.00697e-05
0.000220565
6.00831e-05
0.000220579
0.00011764
0.000117644
0.000209174
6.0038e-05
0.00022056
6.00677e-05
0.000220576
0.000117625
3.60105e-05
3.60072e-05
0.000189077
3.60146e-05
3.60117e-05
2.58474e-05
2.58469e-05
2.58471e-05
2.58468e-05
0.000188926
3.60051e-05
3.60033e-05
3.60132e-05
3.60102e-05
2.5848e-05
2.58478e-05
0.000117686
6.00571e-05
0.000220619
0.000209197
0.000117676
6.00716e-05
0.000220619
4.93637e-05
4.88626e-05
4.93598e-05
4.88621e-05
0.000117685
0.000220614
6.00572e-05
0.000209188
0.000117683
0.000220608
6.00706e-05
4.93655e-05
4.88646e-05
4.88627e-05
4.93454e-05
0.000117655
0.000209191
6.00583e-05
0.0002206
6.00684e-05
0.000220617
0.000117631
4.93675e-05
4.88628e-05
4.88624e-05
4.93462e-05
0.000117651
0.000209178
0.000220581
6.0055e-05
0.000220592
6.0067e-05
0.000117626
4.93503e-05
4.88667e-05
4.93565e-05
4.88664e-05
0.000117626
0.000220608
6.00758e-05
0.000209196
0.000117634
0.00022059
6.00756e-05
4.93494e-05
4.88649e-05
4.9356e-05
4.88649e-05
0.000117603
0.000209182
6.00339e-05
0.000220541
6.00629e-05
0.000220585
0.000117506
4.9346e-05
4.88753e-05
4.88664e-05
4.93086e-05
0.000117592
0.000209168
0.000220511
6.00336e-05
0.000220565
6.00653e-05
0.000117498
4.93448e-05
4.88739e-05
4.88648e-05
4.93072e-05
3.59953e-05
3.6013e-05
0.000189075
3.60029e-05
3.60227e-05
2.58469e-05
2.58461e-05
2.5844e-05
2.58441e-05
0.00018894
3.60026e-05
3.60214e-05
3.60037e-05
3.60239e-05
2.58465e-05
2.58467e-05
0.000117668
0.000220607
6.00745e-05
0.00020921
0.000117667
0.000220595
6.00747e-05
4.93559e-05
4.88658e-05
4.93542e-05
4.88653e-05
4.93619e-05
4.88645e-05
4.93608e-05
4.88644e-05
0.000117622
0.000209201
0.000220586
6.00639e-05
0.000220607
6.00765e-05
0.000117596
0.000117636
0.000209185
0.000220563
6.00328e-05
0.000220579
6.00643e-05
0.00011761
4.93578e-05
4.88661e-05
4.8865e-05
4.93361e-05
4.93648e-05
4.88738e-05
4.88643e-05
4.93419e-05
2.58464e-05
2.58461e-05
2.58454e-05
2.58451e-05
0.000188958
3.60115e-05
3.60059e-05
3.60197e-05
3.60139e-05
2.58471e-05
2.58468e-05
2.5846e-05
2.58458e-05
2.58483e-05
2.58489e-05
2.58463e-05
2.5847e-05
3.60155e-05
3.6004e-05
0.000188835
3.60058e-05
3.59953e-05
2.585e-05
2.58497e-05
2.5848e-05
2.58478e-05
0.000188668
3.59962e-05
3.59863e-05
3.60025e-05
3.59921e-05
4.92866e-05
4.88826e-05
4.93303e-05
4.8884e-05
0.000117441
6.00538e-05
0.000220526
0.000209003
0.000117589
6.00193e-05
0.000220421
0.000117438
6.00212e-05
0.000220505
0.000208923