/*--------------------------------*- C++ -*----------------------------------*\
| =========                 |                                                 |
| \\      /  F ield         | OpenFOAM: The Open Source CFD Toolbox           |
|  \\    /   O peration     | Version:  v1912                                 |
|   \\  /    A nd           | Website:  www.openfoam.com                      |
|    \\/     M anipulation  |                                                 |
\*---------------------------------------------------------------------------*/
FoamFile
{
    version     2.0;
    format      ascii;
    class       volScalarField;
    location    "20";
    object      p;
}
// * * * * * * * * * * * * * * * * * * * * * * * * * * * * * * * * * * * * * //

dimensions      [0 2 -2 0 0 0 0];


internalField   nonuniform List<scalar> 
57062
(
0.00128101
0.00128097
0.00128097
0.00128348
0.0012369
0.00123687
0.00123687
0.00123937
0.00119279
0.00119276
0.00119276
0.00119526
0.00114867
0.00114864
0.00114864
0.00115114
0.00110455
0.00110452
0.00110452
0.00110702
0.00106043
0.0010604
0.0010604
0.00106291
0.00101632
0.00101628
0.00101628
0.00101879
0.0009722
0.000972169
0.000972169
0.000974676
0.000928085
0.000928054
0.000928054
0.00093056
0.000883969
0.000883938
0.000883938
0.000886445
0.000839854
0.000839823
0.000839823
0.000842329
0.000795738
0.000795708
0.000795708
0.000798214
0.000751624
0.000751593
0.000751593
0.0007541
0.00070751
0.000707479
0.000707479
0.000709986
0.000663397
0.000663366
0.000663366
0.000665873
0.000619284
0.000619253
0.000619253
0.000621759
0.000575169
0.000575138
0.000575138
0.000577645
0.000531054
0.000531023
0.000531023
0.000533529
0.000486938
0.000486907
0.000486907
0.000489414
0.000442823
0.000442792
0.000442792
0.000445298
0.000398707
0.000398676
0.000398676
0.000401182
0.000354591
0.00035456
0.00035456
0.000357066
0.000310476
0.000310446
0.000310445
0.000312952
0.000266363
0.000266333
0.000266333
0.000268839
0.000222248
0.000222219
0.000222219
0.000224723
0.000178128
0.000178093
0.000178093
0.000180589
0.000134016
0.000133988
0.000133988
0.000136481
8.98853e-05
8.98466e-05
8.98461e-05
9.22955e-05
4.61999e-05
4.57612e-05
4.57581e-05
4.81729e-05
9.04932e-06
8.768e-06
8.76766e-06
8.01882e-06
0.00128951
0.00129201
0.001292
0.0012895
0.001292
0.001292
0.001292
0.001292
0.00128951
0.001292
0.001292
0.0012895
0.00128348
0.0012454
0.00128098
0.00128097
0.00124789
0.00124789
0.00128348
0.0012454
0.00128097
0.00128097
0.00124789
0.00124789
0.00128097
0.00124789
0.00124789
0.00128348
0.0012454
0.00128097
0.00124789
0.00124789
0.0012454
0.00123937
0.00120129
0.00123687
0.00123687
0.00120379
0.00120379
0.00123937
0.00120129
0.00123687
0.00123687
0.00120379
0.00120379
0.00123687
0.00120379
0.00120379
0.00123937
0.00120129
0.00123687
0.00120379
0.00120379
0.00120129
0.00119526
0.00115717
0.00119276
0.00119276
0.00115967
0.00115967
0.00119526
0.00115717
0.00119276
0.00119276
0.00115967
0.00115967
0.00119276
0.00115967
0.00115967
0.00119526
0.00115717
0.00119276
0.00115967
0.00115967
0.00115717
0.00115114
0.00111305
0.00114864
0.00114864
0.00111555
0.00111555
0.00115114
0.00111305
0.00114864
0.00114864
0.00111555
0.00111555
0.00114864
0.00111555
0.00111555
0.00115114
0.00111305
0.00114864
0.00111555
0.00111555
0.00111305
0.00110702
0.00106893
0.00110452
0.00110452
0.00107143
0.00107143
0.00110702
0.00106893
0.00110452
0.00110452
0.00107143
0.00107143
0.00110452
0.00107143
0.00107143
0.00110702
0.00106893
0.00110452
0.00107143
0.00107143
0.00106893
0.00106291
0.00102482
0.0010604
0.0010604
0.00102731
0.00102731
0.00106291
0.00102482
0.0010604
0.0010604
0.00102731
0.00102731
0.0010604
0.00102731
0.00102731
0.00106291
0.00102482
0.0010604
0.00102731
0.00102731
0.00102482
0.00101879
0.0009807
0.00101628
0.00101628
0.000983198
0.000983198
0.00101879
0.0009807
0.00101628
0.00101628
0.000983198
0.000983198
0.00101629
0.000983198
0.000983198
0.00101879
0.0009807
0.00101628
0.000983198
0.000983198
0.0009807
0.000974676
0.000936584
0.000972169
0.000972169
0.000939083
0.000939082
0.000974675
0.000936585
0.000972169
0.000972169
0.000939082
0.000939083
0.000972169
0.000939083
0.000939083
0.000974676
0.000936584
0.000972169
0.000939083
0.000939083
0.000936584
0.00093056
0.000892469
0.000928054
0.000928054
0.000894967
0.000894967
0.00093056
0.000892469
0.000928053
0.000928054
0.000894967
0.000894967
0.000928054
0.000894967
0.000894967
0.00093056
0.000892469
0.000928054
0.000894967
0.000894967
0.000892469
0.000886445
0.000848354
0.000883938
0.000883938
0.000850852
0.000850852
0.000886445
0.000848354
0.000883938
0.000883938
0.000850852
0.000850852
0.000883939
0.000850852
0.000850852
0.000886445
0.000848353
0.000883938
0.000850852
0.000850851
0.000848353
0.000842329
0.000804238
0.000839823
0.000839823
0.000806736
0.000806736
0.000842329
0.000804238
0.000839823
0.000839823
0.000806736
0.000806736
0.000839823
0.000806736
0.000806737
0.000842329
0.000804238
0.000839823
0.000806736
0.000806736
0.000804238
0.000798214
0.000760123
0.000795707
0.000795707
0.000762621
0.000762621
0.000798214
0.000760124
0.000795707
0.000795708
0.000762621
0.000762621
0.000795708
0.000762622
0.000762622
0.000798214
0.000760123
0.000795707
0.000762622
0.000762621
0.000760123
0.000754099
0.00071601
0.000751593
0.000751593
0.000718508
0.000718508
0.000754099
0.00071601
0.000751593
0.000751593
0.000718508
0.000718508
0.000751593
0.000718508
0.000718508
0.000754099
0.000716009
0.000751593
0.000718508
0.000718508
0.000716009
0.000709986
0.000671896
0.000707479
0.000707479
0.000674394
0.000674394
0.000709985
0.000671897
0.000707479
0.000707479
0.000674394
0.000674394
0.00070748
0.000674394
0.000674394
0.000709986
0.000671896
0.000707479
0.000674394
0.000674394
0.000671896
0.000665873
0.000627783
0.000663366
0.000663366
0.000630281
0.000630281
0.000665872
0.000627783
0.000663366
0.000663366
0.000630281
0.000630281
0.000663366
0.000630281
0.000630281
0.000665873
0.000627783
0.000663366
0.000630281
0.000630281
0.000627783
0.000621759
0.000583669
0.000619253
0.000619253
0.000586167
0.000586167
0.000621759
0.000583669
0.000619253
0.000619253
0.000586167
0.000586167
0.000619253
0.000586167
0.000586167
0.000621759
0.000583669
0.000619253
0.000586167
0.000586167
0.000583669
0.000577645
0.000539554
0.000575138
0.000575138
0.000542052
0.000542052
0.000577645
0.000539554
0.000575138
0.000575138
0.000542052
0.000542052
0.000575138
0.000542052
0.000542052
0.000577645
0.000539553
0.000575138
0.000542052
0.000542052
0.000539553
0.000533529
0.000495438
0.000531023
0.000531023
0.000497936
0.000497936
0.000533529
0.000495438
0.000531023
0.000531023
0.000497936
0.000497936
0.000531023
0.000497936
0.000497936
0.000533529
0.000495438
0.000531023
0.000497936
0.000497936
0.000495438
0.000489414
0.000451322
0.000486907
0.000486907
0.000453821
0.000453821
0.000489413
0.000451323
0.000486907
0.000486907
0.00045382
0.000453821
0.000486907
0.000453821
0.000453821
0.000489414
0.000451322
0.000486907
0.000453821
0.000453821
0.000451322
0.000445298
0.000407207
0.000442792
0.000442792
0.000409705
0.000409705
0.000445298
0.000407207
0.000442792
0.000442792
0.000409705
0.000409705
0.000442792
0.000409705
0.000409705
0.000445298
0.000407206
0.000442792
0.000409705
0.000409705
0.000407206
0.000401182
0.00036309
0.000398676
0.000398676
0.000365589
0.000365589
0.000401182
0.000363091
0.000398676
0.000398676
0.000365589
0.000365589
0.000398676
0.000365589
0.000365589
0.000401182
0.00036309
0.000398676
0.000365589
0.000365589
0.00036309
0.000357066
0.000318976
0.00035456
0.00035456
0.000321474
0.000321474
0.000357066
0.000318976
0.00035456
0.00035456
0.000321474
0.000321474
0.00035456
0.000321474
0.000321474
0.000357066
0.000318975
0.00035456
0.000321474
0.000321474
0.000318976
0.000312952
0.000274862
0.000310445
0.000310445
0.000277361
0.00027736
0.000312952
0.000274863
0.000310445
0.000310445
0.00027736
0.000277361
0.000310446
0.000277361
0.000277361
0.000312952
0.000274862
0.000310445
0.000277361
0.00027736
0.000274862
0.000268839
0.000230749
0.000266333
0.000266332
0.000233247
0.000233247
0.000268839
0.000230749
0.000266332
0.000266333
0.000233247
0.000233247
0.000266333
0.000233247
0.000233247
0.000268839
0.000230748
0.000266332
0.000233247
0.000233247
0.000230749
0.000224723
0.000186631
0.000222219
0.000222219
0.000189125
0.000189125
0.000224723
0.000186631
0.000222218
0.000222219
0.000189125
0.000189125
0.000222219
0.000189125
0.000189126
0.000224723
0.000186631
0.000222219
0.000189125
0.000189125
0.000186631
0.000180589
0.00014252
0.000178093
0.000178093
0.000145009
0.000145009
0.000180589
0.00014252
0.000178093
0.000178093
0.000145009
0.000145009
0.000178093
0.000145009
0.000145009
0.000180589
0.00014252
0.000178093
0.000145009
0.000145009
0.000142519
0.000136481
9.84191e-05
0.000133988
0.000133988
0.000100888
0.000100887
0.000136481
9.84191e-05
0.000133988
0.000133988
0.000100887
0.000100887
0.000133988
0.000100887
0.000100888
0.000136481
9.84184e-05
0.000133988
0.000100887
0.000100887
9.84182e-05
9.22968e-05
5.43157e-05
8.98475e-05
8.98473e-05
5.67821e-05
5.67825e-05
9.22959e-05
5.43169e-05
8.98465e-05
8.98458e-05
5.67794e-05
5.67788e-05
8.98469e-05
5.67807e-05
5.6779e-05
9.22965e-05
5.43133e-05
8.98458e-05
5.67781e-05
5.67772e-05
5.43123e-05
4.81772e-05
1.24209e-05
4.5764e-05
4.57643e-05
1.49768e-05
1.49758e-05
4.81774e-05
1.24204e-05
4.57605e-05
4.57597e-05
1.4976e-05
1.49728e-05
4.57595e-05
1.49747e-05
1.49703e-05
4.81739e-05
1.24182e-05
4.57574e-05
1.49737e-05
1.49728e-05
1.2416e-05
8.02132e-06
8.76845e-06
8.76861e-06
8.0222e-06
8.76765e-06
8.76656e-06
9.04921e-06
9.04806e-06
9.04752e-06
8.7647e-06
8.02105e-06
8.76609e-06
0.00129204
0.00129204
0.00129204
0.00129204
0.00126722
0.00128373
0.00128373
0.00126721
0.00128373
0.00126722
0.00126722
0.00128373
0.00128373
0.00126721
0.00128101
0.00128101
0.00128101
0.00124792
0.00124792
0.00124792
0.00124792
0.00126726
0.0012837
0.00128098
0.00126994
0.00128369
0.00126724
0.00126995
0.00128373
0.00126722
0.00126726
0.00128098
0.0012837
0.00126994
0.00128369
0.00126995
0.00126724
0.00128373
0.00128373
0.00126745
0.00126721
0.00126721
0.00122311
0.00123962
0.00123962
0.00122312
0.00123962
0.00122312
0.00122311
0.00123962
0.00123962
0.00122312
0.0012369
0.0012369
0.0012369
0.00120382
0.00120382
0.00120382
0.00120382
0.00122317
0.0012396
0.00123688
0.00122584
0.00123958
0.00122314
0.00122585
0.00123962
0.00122311
0.00122316
0.00123688
0.00123959
0.00122584
0.00123958
0.00122585
0.00122314
0.00123963
0.00123963
0.00122335
0.00122312
0.00122311
0.001179
0.00119552
0.00119553
0.001179
0.00119551
0.001179
0.001179
0.00119552
0.00119553
0.001179
0.00119279
0.00119279
0.00119279
0.0011597
0.0011597
0.0011597
0.0011597
0.00117904
0.00119549
0.00119276
0.00118173
0.00119547
0.00117902
0.00118173
0.00119552
0.001179
0.00117904
0.00119276
0.00119549
0.00118173
0.00119547
0.00118173
0.00117903
0.00119552
0.00119552
0.00117923
0.00117899
0.00117899
0.00113488
0.0011514
0.0011514
0.00113488
0.0011514
0.00113488
0.00113488
0.0011514
0.0011514
0.00113488
0.00114867
0.00114867
0.00114867
0.00111558
0.00111558
0.00111558
0.00111558
0.00113492
0.00115137
0.00114864
0.00113761
0.00115135
0.0011349
0.00113761
0.0011514
0.00113488
0.00113492
0.00114864
0.00115137
0.00113761
0.00115135
0.00113761
0.0011349
0.0011514
0.0011514
0.00113511
0.00113487
0.00113487
0.00109076
0.00110727
0.00110727
0.00109076
0.00110727
0.00109076
0.00109076
0.00110727
0.00110727
0.00109076
0.00110455
0.00110455
0.00110455
0.00107146
0.00107146
0.00107146
0.00107146
0.0010908
0.00110725
0.00110452
0.00109349
0.00110723
0.00109078
0.00109349
0.00110727
0.00109076
0.00109081
0.00110452
0.00110725
0.00109349
0.00110723
0.00109349
0.00109078
0.00110728
0.00110728
0.00109099
0.00109075
0.00109075
0.00104665
0.00106316
0.00106316
0.00104664
0.00106316
0.00104664
0.00104665
0.00106316
0.00106316
0.00104664
0.00106043
0.00106043
0.00106043
0.00102734
0.00102734
0.00102734
0.00102734
0.00104669
0.00106313
0.00106041
0.00104937
0.00106311
0.00104667
0.00104938
0.00106316
0.00104664
0.00104669
0.00106041
0.00106313
0.00104937
0.00106312
0.00104938
0.00104667
0.00106316
0.00106316
0.00104687
0.00104664
0.00104664
0.00100253
0.00101904
0.00101904
0.00100253
0.00101904
0.00100253
0.00100253
0.00101904
0.00101904
0.00100253
0.00101632
0.00101632
0.00101632
0.000983229
0.000983229
0.000983229
0.000983229
0.00100257
0.00101902
0.00101629
0.00100526
0.001019
0.00100255
0.00100526
0.00101904
0.00100253
0.00100257
0.00101629
0.00101902
0.00100526
0.001019
0.00100526
0.00100255
0.00101905
0.00101905
0.00100276
0.00100252
0.00100252
0.000958415
0.000974925
0.000974927
0.000958413
0.000974927
0.000958411
0.000958414
0.000974925
0.000974927
0.000958413
0.0009722
0.0009722
0.0009722
0.000939113
0.000939113
0.000939114
0.000939113
0.000958459
0.0009749
0.000972177
0.00096114
0.000974883
0.000958438
0.000961148
0.000974927
0.000958411
0.000958459
0.000972176
0.0009749
0.00096114
0.000974883
0.000961148
0.000958438
0.00097493
0.000974931
0.000958642
0.000958408
0.000958408
0.000914299
0.00093081
0.000930811
0.000914297
0.000930811
0.000914296
0.000914299
0.00093081
0.000930812
0.000914298
0.000928085
0.000928085
0.000928084
0.000894998
0.000894998
0.000894998
0.000894998
0.000914343
0.000930784
0.000928061
0.000917025
0.000930768
0.000914322
0.000917032
0.000930812
0.000914296
0.000914343
0.000928061
0.000930785
0.000917025
0.000930768
0.000917032
0.000914322
0.000930815
0.000930815
0.000914527
0.000914293
0.000914293
0.000870184
0.000886695
0.000886696
0.000870182
0.000886696
0.000870181
0.000870183
0.000886695
0.000886697
0.000870182
0.000883969
0.000883969
0.000883969
0.000850883
0.000850883
0.000850883
0.000850882
0.000870228
0.000886669
0.000883946
0.00087291
0.000886653
0.000870207
0.000872917
0.000886696
0.000870181
0.000870228
0.000883946
0.000886669
0.000872909
0.000886652
0.000872917
0.000870207
0.0008867
0.0008867
0.000870411
0.000870177
0.000870177
0.000826068
0.000842579
0.000842581
0.000826067
0.000842581
0.000826065
0.000826068
0.000842579
0.000842581
0.000826067
0.000839854
0.000839854
0.000839853
0.000806767
0.000806767
0.000806767
0.000806767
0.000826112
0.000842553
0.00083983
0.000828794
0.000842537
0.000826091
0.000828801
0.000842581
0.000826065
0.000826112
0.00083983
0.000842554
0.000828794
0.000842537
0.000828801
0.000826091
0.000842584
0.000842584
0.000826296
0.000826062
0.000826062
0.000781953
0.000798464
0.000798465
0.000781951
0.000798465
0.00078195
0.000781952
0.000798464
0.000798466
0.000781951
0.000795738
0.000795739
0.000795738
0.000762652
0.000762652
0.000762653
0.000762652
0.000781997
0.000798438
0.000795715
0.000784679
0.000798422
0.000781976
0.000784686
0.000798465
0.00078195
0.000781997
0.000795715
0.000798438
0.000784679
0.000798422
0.000784686
0.000781976
0.000798469
0.000798469
0.000782181
0.000781947
0.000781947
0.000737839
0.000754349
0.000754351
0.000737837
0.000754351
0.000737836
0.000737838
0.000754349
0.000754351
0.000737837
0.000751624
0.000751624
0.000751624
0.000718539
0.000718539
0.000718539
0.000718538
0.000737883
0.000754323
0.000751601
0.000740565
0.000754307
0.000737862
0.000740572
0.000754351
0.000737836
0.000737883
0.0007516
0.000754324
0.000740565
0.000754307
0.000740572
0.000737862
0.000754354
0.000754354
0.000738066
0.000737832
0.000737832
0.000693725
0.000710235
0.000710237
0.000693724
0.000710237
0.000693722
0.000693725
0.000710235
0.000710237
0.000693724
0.00070751
0.00070751
0.00070751
0.000674425
0.000674425
0.000674425
0.000674425
0.000693769
0.00071021
0.000707487
0.000696451
0.000710193
0.000693749
0.000696458
0.000710237
0.000693722
0.000693769
0.000707487
0.00071021
0.000696451
0.000710193
0.000696458
0.000693748
0.000710241
0.000710241
0.000693953
0.000693719
0.000693719
0.000649612
0.000666122
0.000666124
0.000649611
0.000666124
0.000649609
0.000649612
0.000666122
0.000666124
0.000649611
0.000663397
0.000663397
0.000663397
0.000630312
0.000630312
0.000630312
0.000630312
0.000649656
0.000666097
0.000663374
0.000652338
0.00066608
0.000649636
0.000652345
0.000666124
0.000649609
0.000649656
0.000663373
0.000666097
0.000652338
0.00066608
0.000652345
0.000649635
0.000666127
0.000666127
0.00064984
0.000649606
0.000649606
0.000605499
0.000622009
0.000622011
0.000605497
0.000622011
0.000605496
0.000605498
0.000622009
0.000622011
0.000605497
0.000619284
0.000619284
0.000619283
0.000586198
0.000586198
0.000586198
0.000586198
0.000605543
0.000621983
0.00061926
0.000608224
0.000621967
0.000605522
0.000608232
0.000622011
0.000605496
0.000605543
0.00061926
0.000621984
0.000608224
0.000621967
0.000608232
0.000605522
0.000622014
0.000622014
0.000605726
0.000605492
0.000605492
0.000561384
0.000577895
0.000577896
0.000561382
0.000577896
0.000561381
0.000561383
0.000577895
0.000577897
0.000561382
0.000575169
0.000575169
0.000575169
0.000542083
0.000542083
0.000542083
0.000542082
0.000561428
0.000577869
0.000575146
0.00056411
0.000577853
0.000561407
0.000564117
0.000577896
0.000561381
0.000561428
0.000575146
0.000577869
0.00056411
0.000577853
0.000564117
0.000561407
0.0005779
0.0005779
0.000561611
0.000561377
0.000561377
0.000517268
0.000533779
0.000533781
0.000517266
0.000533781
0.000517265
0.000517268
0.000533779
0.000533781
0.000517266
0.000531054
0.000531054
0.000531053
0.000497967
0.000497967
0.000497967
0.000497967
0.000517312
0.000533753
0.00053103
0.000519994
0.000533737
0.000517291
0.000520001
0.000533781
0.000517265
0.000517312
0.00053103
0.000533754
0.000519994
0.000533737
0.000520001
0.000517291
0.000533784
0.000533784
0.000517496
0.000517261
0.000517262
0.000473153
0.000489663
0.000489665
0.000473151
0.000489665
0.000473149
0.000473152
0.000489663
0.000489665
0.000473151
0.000486938
0.000486938
0.000486938
0.000453851
0.000453851
0.000453852
0.000453851
0.000473197
0.000489638
0.000486915
0.000475878
0.000489621
0.000473176
0.000475886
0.000489665
0.000473149
0.000473197
0.000486914
0.000489638
0.000475878
0.000489621
0.000475886
0.000473176
0.000489669
0.000489669
0.00047338
0.000473146
0.000473146
0.000429037
0.000445548
0.000445549
0.000429035
0.000445549
0.000429034
0.000429037
0.000445548
0.00044555
0.000429036
0.000442822
0.000442823
0.000442822
0.000409736
0.000409736
0.000409736
0.000409735
0.000429081
0.000445522
0.000442799
0.000431763
0.000445506
0.00042906
0.00043177
0.00044555
0.000429034
0.000429081
0.000442799
0.000445523
0.000431763
0.000445506
0.00043177
0.00042906
0.000445553
0.000445553
0.000429265
0.00042903
0.00042903
0.000384921
0.000401432
0.000401434
0.000384919
0.000401434
0.000384918
0.00038492
0.000401432
0.000401434
0.000384919
0.000398707
0.000398707
0.000398706
0.00036562
0.00036562
0.00036562
0.000365619
0.000384965
0.000401406
0.000398683
0.000387647
0.00040139
0.000384944
0.000387654
0.000401434
0.000384918
0.000384965
0.000398683
0.000401406
0.000387647
0.00040139
0.000387654
0.000384944
0.000401437
0.000401437
0.000385148
0.000384914
0.000384914
0.000340805
0.000357316
0.000357318
0.000340804
0.000357317
0.000340802
0.000340805
0.000357316
0.000357318
0.000340804
0.000354591
0.000354591
0.00035459
0.000321505
0.000321505
0.000321505
0.000321505
0.000340849
0.00035729
0.000354567
0.000343531
0.000357274
0.000340828
0.000343539
0.000357318
0.000340802
0.000340849
0.000354567
0.000357291
0.000343531
0.000357274
0.000343538
0.000340828
0.000357321
0.000357321
0.000341033
0.000340799
0.000340799
0.000296691
0.000313201
0.000313203
0.00029669
0.000313203
0.000296688
0.000296691
0.000313201
0.000313203
0.00029669
0.000310476
0.000310476
0.000310476
0.000277391
0.000277391
0.000277391
0.000277391
0.000296736
0.000313176
0.000310453
0.000299417
0.00031316
0.000296715
0.000299425
0.000313203
0.000296688
0.000296736
0.000310453
0.000313176
0.000299417
0.000313159
0.000299424
0.000296714
0.000313207
0.000313207
0.000296919
0.000296685
0.000296685
0.000252578
0.000269088
0.000269089
0.000252576
0.000269089
0.000252575
0.000252578
0.000269088
0.00026909
0.000252576
0.000266363
0.000266363
0.000266363
0.000233276
0.000233276
0.000233276
0.000233276
0.000252622
0.000269062
0.00026634
0.000255304
0.000269046
0.000252602
0.000255311
0.00026909
0.000252575
0.000252622
0.00026634
0.000269063
0.000255304
0.000269046
0.000255311
0.000252601
0.000269093
0.000269093
0.000252806
0.000252572
0.000252572
0.000208465
0.000224973
0.000224972
0.000208459
0.000224976
0.000208452
0.000208464
0.000224973
0.000224972
0.00020846
0.000222248
0.000222248
0.000222248
0.000189152
0.000189152
0.000189152
0.000189152
0.000208508
0.000224943
0.000222226
0.000211188
0.000224929
0.000208494
0.000211193
0.000224976
0.000208452
0.000208508
0.000222225
0.000224943
0.000211188
0.000224929
0.000211193
0.000208493
0.000224977
0.000224977
0.00020869
0.000208454
0.000208454
0.000164352
0.000180806
0.000180844
0.00016437
0.000180846
0.000164352
0.000164352
0.000180806
0.000180844
0.00016437
0.000178128
0.000178128
0.000178128
0.00014503
0.000145029
0.000145029
0.00014503
0.000164383
0.000180793
0.000178101
0.00016706
0.000180802
0.000164386
0.000167064
0.000180846
0.000164352
0.000164383
0.000178101
0.000180793
0.00016706
0.000180803
0.000167064
0.000164386
0.000180844
0.000180844
0.000164576
0.000164363
0.000164363
0.000120201
0.000136759
0.000136768
0.000120174
0.000136775
0.000120085
0.0001202
0.000136762
0.000136768
0.000120174
0.000134015
0.000134015
0.000134016
0.000100895
0.000100893
0.000100894
0.000100894
0.000120273
0.000136684
0.000134001
0.00012297
0.000136722
0.000120272
0.000122952
0.000136775
0.000120085
0.000120272
0.000134001
0.000136687
0.000122971
0.000136723
0.000122952
0.000120273
0.00013669
0.00013669
0.000120461
0.000120188
0.000120188
7.60509e-05
9.26063e-05
9.25844e-05
7.60671e-05
9.26999e-05
7.60494e-05
7.60492e-05
9.26049e-05
9.25831e-05
7.6067e-05
8.98828e-05
8.98842e-05
8.98834e-05
5.69161e-05
5.69171e-05
5.69142e-05
5.69142e-05
7.61001e-05
9.24525e-05
8.98765e-05
7.88307e-05
9.25668e-05
7.61983e-05
7.88318e-05
9.26975e-05
7.60519e-05
7.60991e-05
8.98754e-05
9.24499e-05
7.88293e-05
9.25663e-05
7.88308e-05
7.61967e-05
9.25566e-05
9.25584e-05
7.63425e-05
7.61113e-05
7.61121e-05
3.14037e-05
4.81657e-05
4.82693e-05
3.07054e-05
4.81671e-05
3.04492e-05
3.13904e-05
4.81565e-05
4.82633e-05
3.06983e-05
4.62003e-05
4.6197e-05
4.61968e-05
1.68529e-05
1.6852e-05
1.685e-05
1.68495e-05
3.17375e-05
4.80131e-05
4.59998e-05
3.49423e-05
4.8327e-05
3.11957e-05
3.53303e-05
4.8152e-05
3.04546e-05
3.17379e-05
4.59972e-05
4.80095e-05
3.49393e-05
4.83269e-05
3.53277e-05
3.1198e-05
4.81303e-05
4.81289e-05
3.2367e-05
3.06171e-05
3.06146e-05
-9.41352e-07
1.97043e-06
5.66982e-06
-4.65648e-06
2.36632e-06
-4.18116e-06
-9.28773e-07
1.94534e-06
5.65378e-06
-4.65237e-06
2.29431e-06
9.78828e-06
9.78666e-06
2.0331e-06
1.0248e-05
2.20523e-06
2.20455e-06
1.933e-06
2.63888e-06
8.55448e-06
1.79256e-06
6.68464e-06
1.75616e-06
2.16147e-06
2.34141e-06
-4.17226e-06
1.93466e-06
8.5547e-06
2.63825e-06
1.79349e-06
6.68532e-06
2.1625e-06
1.76582e-06
1.87216e-06
1.87189e-06
1.39772e-06
1.6535e-06
1.68107e-06
0.00128927
0.00128927
0.00128927
0.00128927
0.00128927
0.00128927
0.00128927
0.00130579
0.00128927
0.0012893
0.00129201
0.00128932
0.00130303
0.00128929
0.00129201
0.00130576
0.00128932
0.00128927
0.00130578
0.00130554
0.00128927
0.00128927
0.00130579
0.00130579
0.00128927
0.00130578
0.00128927
0.00128927
0.0012893
0.00129201
0.00128932
0.00128927
0.00128927
0.00129201
0.0012893
0.00128932
0.00130574
0.00130303
0.00128929
0.00129201
0.00130576
0.00130304
0.00128932
0.00130579
0.00128927
0.00130578
0.00128927
0.00130574
0.00130303
0.00129201
0.00128929
0.00130304
0.00130576
0.00128932
0.00130578
0.00128927
0.00130578
0.00128927
0.00128927
0.00128927
0.00128927
0.00128927
0.00129201
0.0012893
0.00128932
0.00130303
0.00129201
0.00128929
0.00130576
0.00128932
0.00128927
0.00128927
0.00128927
0.00130579
0.00128927
0.00130554
0.00128927
0.00128927
0.00130579
0.00130579
0.00128927
0.00130578
0.00128927
0.00130578
0.00128373
0.00126722
0.00128373
0.00126722
0.00128373
0.00128373
0.00126745
0.00126721
0.00126721
0.00124516
0.00126167
0.00124516
0.00126167
0.00126142
0.00124516
0.00124516
0.00126168
0.00126168
0.00126722
0.00128373
0.00128373
0.00126722
0.00126726
0.0012837
0.00128098
0.00126995
0.00128369
0.00126724
0.00126995
0.00126726
0.0012837
0.00128098
0.00126994
0.00128369
0.00126724
0.00126995
0.00126167
0.00124516
0.00126167
0.00124517
0.00126168
0.00124517
0.00126167
0.00124517
0.00126163
0.00125892
0.00124519
0.0012479
0.00126165
0.00125893
0.00124521
0.00126163
0.00125892
0.00124519
0.0012479
0.00126165
0.00125893
0.00124521
0.00128373
0.00128373
0.00126745
0.00126721
0.00126721
0.00128373
0.00126722
0.00124516
0.00126168
0.00126142
0.00124516
0.00124516
0.00126168
0.00126168
0.00124516
0.00126168
0.00126726
0.0012837
0.00128098
0.00126994
0.00128369
0.00126724
0.00126995
0.00126722
0.00128373
0.00128373
0.00126721
0.00126726
0.00128098
0.0012837
0.00126994
0.00128369
0.00126995
0.00126724
0.00126167
0.00124516
0.00126167
0.00124516
0.00126163
0.00125892
0.00124519
0.0012479
0.00126165
0.00125892
0.00124521
0.00126167
0.00124516
0.00126167
0.00124516
0.00126163
0.00125892
0.0012479
0.00124519
0.00125892
0.00126165
0.00124521
0.00126722
0.00128373
0.00128373
0.00126722
0.00126726
0.00128098
0.0012837
0.00126994
0.00128369
0.00126995
0.00126724
0.00126722
0.00128373
0.00128373
0.00126722
0.00126163
0.00125892
0.00124519
0.0012479
0.00126165
0.00125893
0.00124521
0.00126168
0.00124517
0.00126167
0.00124517
0.00126163
0.00125892
0.0012479
0.00124519
0.00125893
0.00126165
0.00124521
0.00126168
0.00124517
0.00126167
0.00124517
0.00128373
0.00128373
0.00126745
0.00126721
0.00126721
0.00128373
0.00126722
0.00124516
0.00126167
0.00126142
0.00124516
0.00124516
0.00126168
0.00126168
0.00124516
0.00126167
0.00126726
0.00128098
0.0012837
0.00126994
0.00128369
0.00126995
0.00126724
0.00126722
0.00128373
0.00128373
0.00126721
0.00126722
0.00128373
0.00128373
0.00126722
0.00126163
0.00125892
0.0012479
0.00124519
0.00125893
0.00126165
0.00124521
0.00126163
0.00125892
0.0012479
0.00124519
0.00125893
0.00126165
0.00124521
0.00126167
0.00124516
0.00126167
0.00124517
0.00126168
0.00124517
0.00126167
0.00124517
0.00128373
0.00126722
0.00128373
0.00126722
0.00126143
0.00124516
0.00124516
0.00126168
0.00126168
0.00124516
0.00126168
0.00124516
0.00126168
0.00123962
0.00122311
0.00123962
0.00122311
0.00123962
0.00123962
0.00122334
0.00122311
0.00122311
0.00120106
0.00121758
0.00120106
0.00121758
0.00121732
0.00120106
0.00120106
0.00121758
0.00121758
0.00122311
0.00123962
0.00123962
0.00122312
0.00122316
0.00123959
0.00123688
0.00122584
0.00123958
0.00122314
0.00122585
0.00122316
0.0012396
0.00123688
0.00122584
0.00123958
0.00122314
0.00122585
0.00121757
0.00120106
0.00121757
0.00120107
0.00121757
0.00120106
0.00121758
0.00120107
0.00121753
0.00121481
0.00120109
0.00120379
0.00121755
0.00121482
0.00120111
0.00121753
0.00121481
0.00120109
0.00120379
0.00121755
0.00121482
0.00120111
0.00123963
0.00123963
0.00122335
0.00122311
0.00122312
0.00123963
0.00122312
0.00120106
0.00121758
0.00121732
0.00120106
0.00120106
0.00121758
0.00121758
0.00120106
0.00121758
0.00122316
0.00123959
0.00123687
0.00122584
0.00123958
0.00122314
0.00122585
0.00122311
0.00123962
0.00123962
0.00122312
0.00122316
0.00123687
0.00123959
0.00122584
0.00123958
0.00122585
0.00122314
0.00121757
0.00120106
0.00121757
0.00120107
0.00121753
0.00121481
0.00120109
0.00120379
0.00121755
0.00121482
0.00120111
0.00121757
0.00120107
0.00121757
0.00120107
0.00121753
0.00121481
0.00120379
0.00120109
0.00121482
0.00121755
0.00120111
0.00122312
0.00123962
0.00123962
0.00122312
0.00122317
0.00123688
0.0012396
0.00122584
0.00123958
0.00122585
0.00122314
0.00122312
0.00123962
0.00123962
0.00122312
0.00121753
0.00121481
0.00120109
0.00120379
0.00121755
0.00121482
0.0012011
0.00121758
0.00120106
0.00121758
0.00120107
0.00121753
0.00121481
0.00120379
0.00120109
0.00121482
0.00121755
0.0012011
0.00121758
0.00120106
0.00121758
0.00120107
0.00123962
0.00123962
0.00122334
0.00122311
0.00122311
0.00123962
0.00122311
0.00120106
0.00121758
0.00121732
0.00120106
0.00120106
0.00121758
0.00121758
0.00120106
0.00121758
0.00122316
0.00123688
0.0012396
0.00122584
0.00123958
0.00122585
0.00122314
0.00122311
0.00123962
0.00123962
0.00122312
0.00122311
0.00123962
0.00123962
0.00122312
0.00121753
0.00121481
0.00120379
0.00120109
0.00121482
0.00121755
0.00120111
0.00121753
0.00121481
0.00120379
0.00120109
0.00121482
0.00121755
0.00120111
0.00121757
0.00120107
0.00121757
0.00120107
0.00121757
0.00120106
0.00121758
0.00120107
0.00123963
0.00122312
0.00123962
0.00122312
0.00121732
0.00120106
0.00120106
0.00121758
0.00121758
0.00120106
0.00121758
0.00120106
0.00121758
0.00119552
0.001179
0.00119552
0.001179
0.00119552
0.00119552
0.00117923
0.001179
0.001179
0.00115694
0.00117345
0.00115694
0.00117345
0.0011732
0.00115694
0.00115694
0.00117346
0.00117346
0.001179
0.00119551
0.00119553
0.001179
0.00117904
0.0011955
0.00119276
0.00118173
0.00119547
0.00117903
0.00118173
0.00117904
0.00119549
0.00119276
0.00118173
0.00119547
0.00117902
0.00118173
0.00117346
0.00115694
0.00117345
0.00115694
0.00117346
0.00115694
0.00117345
0.00115694
0.00117341
0.0011707
0.00115696
0.00115967
0.00117343
0.0011707
0.00115698
0.00117341
0.0011707
0.00115696
0.00115967
0.00117343
0.0011707
0.00115698
0.00119552
0.00119552
0.00117923
0.001179
0.00117899
0.00119551
0.001179
0.00115694
0.00117346
0.0011732
0.00115694
0.00115694
0.00117346
0.00117346
0.00115694
0.00117346
0.00117904
0.0011955
0.00119276
0.00118173
0.00119547
0.00117903
0.00118173
0.001179
0.00119552
0.00119553
0.001179
0.00117904
0.00119276
0.00119549
0.00118173
0.00119547
0.00118173
0.00117903
0.00117346
0.00115694
0.00117345
0.00115694
0.00117341
0.0011707
0.00115696
0.00115967
0.00117343
0.0011707
0.00115699
0.00117346
0.00115694
0.00117345
0.00115694
0.00117341
0.0011707
0.00115967
0.00115696
0.0011707
0.00117343
0.00115698
0.001179
0.00119551
0.00119552
0.001179
0.00117904
0.00119276
0.00119549
0.00118173
0.00119547
0.00118173
0.00117902
0.001179