/*--------------------------------*- C++ -*----------------------------------*\
| =========                 |                                                 |
| \\      /  F ield         | OpenFOAM: The Open Source CFD Toolbox           |
|  \\    /   O peration     | Version:  v1912                                 |
|   \\  /    A nd           | Website:  www.openfoam.com                      |
|    \\/     M anipulation  |                                                 |
\*---------------------------------------------------------------------------*/
FoamFile
{
    version     2.0;
    format      ascii;
    class       surfaceScalarField;
    location    "20";
    object      phi;
}
// * * * * * * * * * * * * * * * * * * * * * * * * * * * * * * * * * * * * * //

dimensions      [0 3 -1 0 0 0 0];
oriented        oriented;


internalField   nonuniform List<scalar> 
165494
(
1.22293e-09
1.35075e-09
-0.00107712
-1.33563e-09
-1.51993e-09
0.00107712
-0.0010775
-1.2109e-06
-1.62507e-09
2.34412e-09
0.0010775
-2.55343e-07
1.21343e-06
2.54352e-07
8.94154e-07
-2.50029e-07
-8.93765e-07
2.47906e-07
-0.00107716
-1.2056e-06
-1.43386e-09
2.59664e-09
0.00107716
-2.5546e-07
1.20797e-06
2.54281e-07
8.93894e-07
-2.52868e-07
-8.93772e-07
2.5054e-07
-0.000264905
1.23909e-06
1.20563e-06
-2.20019e-07
-2.25219e-07
0.000262906
1.955e-09
2.12988e-09
-0.00107712
-1.7198e-09
-1.68103e-09
0.00107712
-0.0010775
-1.21084e-06
-1.82017e-09
2.2744e-09
0.0010775
-2.55273e-07
1.21356e-06
2.54532e-07
8.94277e-07
-2.49931e-07
-8.93719e-07
2.48156e-07
-0.00107716
-1.20549e-06
-2.01845e-09
2.21362e-09
0.00107716
-2.55297e-07
1.20815e-06
2.54527e-07
8.9415e-07
-2.52677e-07
-8.93592e-07
2.50825e-07
-0.000264905
1.23906e-06
1.20564e-06
-2.19977e-07
-2.25127e-07
0.000262905
6.20971e-10
8.62373e-10
-0.00107712
-1.13209e-09
-1.05677e-09
0.00107712
-0.0010775
-1.2111e-06
-7.86494e-10
2.61748e-09
0.0010775
-2.55617e-07
1.21351e-06
2.54385e-07
8.93997e-07
-2.50946e-07
-8.94332e-07
2.47442e-07
-0.00107716
-1.20567e-06
-7.38109e-10
2.4209e-09
0.00107716
-2.55607e-07
1.20814e-06
2.54397e-07
8.93693e-07
-2.53583e-07
-8.94287e-07
2.50033e-07
-0.000264905
1.23929e-06
1.20585e-06
-2.20308e-07
-2.25451e-07
0.000262905
6.2693e-10
7.15167e-10
-0.00107712
-9.80825e-10
-1.04291e-09
0.00107712
-0.0010775
-1.21122e-06
-7.77544e-10
2.8117e-09
0.0010775
-2.55725e-07
1.21339e-06
2.54259e-07
8.93946e-07
-2.50704e-07
-8.94338e-07
2.47597e-07
-0.00107716
-1.2058e-06
-8.56599e-10
2.80343e-09
0.00107716
-2.55677e-07
1.20798e-06
2.5427e-07
8.9385e-07
-2.53318e-07
-8.94104e-07
2.50398e-07
-0.000264905
1.23944e-06
1.206e-06
-2.20392e-07
-2.25571e-07
0.000262906
1.46726e-09
1.40271e-09
-0.00107712
-1.25518e-09
-1.39914e-09
0.00107712
-0.0010775
-1.2109e-06
-1.94071e-09
2.25643e-09
0.0010775
-2.55355e-07
1.21364e-06
2.54593e-07
8.94313e-07
-2.5033e-07
-8.9393e-07
2.47962e-07
-0.00107716
-1.20562e-06
-1.81323e-09
2.55321e-09
0.00107716
-2.55473e-07
1.20817e-06
2.54515e-07
8.94149e-07
-2.53107e-07
-8.93836e-07
2.50652e-07
-0.000264906
1.23907e-06
1.2056e-06
-2.19951e-07
-2.25162e-07
0.000262906
1.44395e-09
1.53643e-09
-0.00107712
-1.43728e-09
-1.44023e-09
0.00107712
-0.0010775
-1.21098e-06
-1.53847e-09
2.43599e-09
0.0010775
-2.55473e-07
1.21353e-06
2.54454e-07
8.94186e-07
-2.50395e-07
-8.94034e-07
2.47869e-07
-0.00107716
-1.20557e-06
-1.67498e-09
2.41105e-09
0.00107716
-2.55446e-07
1.20814e-06
2.54477e-07
8.94041e-07
-2.53062e-07
-8.93871e-07
2.50633e-07
-0.000264906
1.23917e-06
1.20574e-06
-2.20121e-07
-2.25283e-07
0.000262906
1.28172e-09
1.37849e-09
-0.00107712
-1.35295e-09
-1.3668e-09
0.00107712
-0.0010775
-1.21101e-06
-1.38113e-09
2.49036e-09
0.0010775
-2.5551e-07
1.2135e-06
2.54422e-07
8.94154e-07
-2.50434e-07
-8.94072e-07
2.47834e-07
-0.00107716
-1.20562e-06
-1.43739e-09
2.50266e-09
0.00107716
-2.55501e-07
1.20809e-06
2.5443e-07
8.93988e-07
-2.53124e-07
-8.93932e-07
2.50578e-07
-0.000264906
1.23922e-06
1.20578e-06
-2.20161e-07
-2.25331e-07
0.000262906
1.29863e-09
1.38545e-09
-0.00107712
-1.34356e-09
-1.37086e-09
0.00107712
-0.0010775
-1.211e-06
-1.45298e-09
2.46504e-09
0.0010775
-2.55498e-07
1.21351e-06
2.54437e-07
8.94169e-07
-2.50423e-07
-8.9406e-07
2.47849e-07
-0.00107716
-1.20562e-06
-1.49104e-09
2.49316e-09
0.00107716
-2.55495e-07
1.2081e-06
2.54439e-07
8.93998e-07
-2.53119e-07
-8.93926e-07
2.50588e-07
-0.000264906
1.23921e-06
1.20576e-06
-2.20148e-07
-2.25328e-07
0.000262906
1.315e-09
1.38467e-09
-0.00107712
-1.3488e-09
-1.38564e-09
0.00107712
-0.0010775
-1.211e-06
-1.41456e-09
2.47863e-09
0.0010775
-2.55506e-07
1.21351e-06
2.54428e-07
8.9416e-07
-2.50429e-07
-8.94065e-07
2.4784e-07
-0.00107716
-1.20562e-06
-1.46446e-09
2.50605e-09
0.00107716
-2.55498e-07
1.20809e-06
2.54434e-07
8.93992e-07
-2.53124e-07
-8.93929e-07
2.5058e-07
-0.000264906
1.23921e-06
1.20576e-06
-2.20146e-07
-2.25326e-07
0.000262906
1.33025e-09
1.39789e-09
-0.00107712
-1.35007e-09
-1.38828e-09
0.00107712
-0.0010775
-1.211e-06
-1.44856e-09
2.46177e-09
0.0010775
-2.555e-07
1.21351e-06
2.54435e-07
8.94168e-07
-2.50424e-07
-8.9406e-07
2.47848e-07
-0.00107716
-1.20562e-06
-1.50254e-09
2.49296e-09
0.00107716
-2.55494e-07
1.2081e-06
2.54441e-07
8.94002e-07
-2.53118e-07
-8.93923e-07
2.50588e-07
-0.000264906
1.23921e-06
1.20576e-06
-2.20148e-07
-2.25329e-07
0.000262906
1.28996e-09
1.35566e-09
-0.00107712
-1.33126e-09
-1.36891e-09
0.00107712
-0.0010775
-1.211e-06
-1.41434e-09
2.47672e-09
0.0010775
-2.55503e-07
1.21351e-06
2.54429e-07
8.9416e-07
-2.50428e-07
-8.94065e-07
2.4784e-07
-0.00107716
-1.20562e-06
-1.46534e-09
2.50716e-09
0.00107716
-2.55496e-07
1.20809e-06
2.54435e-07
8.93993e-07
-2.53123e-07
-8.93927e-07
2.50579e-07
-0.000264906
1.23921e-06
1.20577e-06
-2.20149e-07
-2.25329e-07
0.000262906
1.31265e-09
1.38824e-09
-0.00107712
-1.34534e-09
-1.37652e-09
0.00107712
-0.0010775
-1.211e-06
-1.42092e-09
2.47735e-09
0.0010775
-2.55505e-07
1.21351e-06
2.5443e-07
8.94163e-07
-2.5043e-07
-8.94066e-07
2.47842e-07
-0.00107716
-1.20562e-06
-1.47109e-09
2.5041e-09
0.00107716
-2.55496e-07
1.2081e-06
2.54438e-07
8.93994e-07
-2.53125e-07
-8.9393e-07
2.50581e-07
-0.000264906
1.23921e-06
1.20577e-06
-2.20149e-07
-2.25326e-07
0.000262906
1.26361e-09
1.35233e-09
-0.00107712
-1.33035e-09
-1.35458e-09
0.00107712
-0.0010775
-1.21101e-06
-1.39466e-09
2.48663e-09
0.0010775
-2.55508e-07
1.2135e-06
2.54426e-07
8.94156e-07
-2.50434e-07
-8.9407e-07
2.47835e-07
-0.00107716
-1.20563e-06
-1.43704e-09
2.51402e-09
0.00107716
-2.55504e-07
1.20809e-06
2.54429e-07
8.93986e-07
-2.5313e-07
-8.93934e-07
2.50573e-07
-0.000264906
1.23922e-06
1.20578e-06
-2.20157e-07
-2.25339e-07
0.000262906
1.26913e-09
1.34945e-09
-0.00107712
-1.32338e-09
-1.35281e-09
0.00107712
-0.0010775
-1.21101e-06
-1.4109e-09
2.48485e-09
0.0010775
-2.55507e-07
1.2135e-06
2.54427e-07
8.9416e-07
-2.50431e-07
-8.94067e-07
2.4784e-07
-0.00107716
-1.20562e-06
-1.44762e-09
2.51234e-09
0.00107716
-2.555e-07
1.20809e-06
2.54433e-07
8.93989e-07
-2.53127e-07
-8.93933e-07
2.50576e-07
-0.000264906
1.23921e-06
1.20577e-06
-2.20154e-07
-2.25331e-07
0.000262906
1.28373e-09
1.36214e-09
-0.00107712
-1.33482e-09
-1.36515e-09
0.00107712
-0.0010775
-1.21101e-06
-1.40708e-09
2.4793e-09
0.0010775
-2.55507e-07
1.2135e-06
2.54427e-07
8.94158e-07
-2.50432e-07
-8.94068e-07
2.47838e-07
-0.00107716
-1.20562e-06
-1.44298e-09
2.5072e-09
0.00107716
-2.555e-07
1.20809e-06
2.54433e-07
8.93986e-07
-2.5313e-07
-8.93936e-07
2.50574e-07
-0.000264906
1.23922e-06
1.20577e-06
-2.20154e-07
-2.25335e-07
0.000262906
1.31265e-09
1.39331e-09
-0.00107712
-1.34778e-09
-1.3782e-09
0.00107712
-0.0010775
-1.211e-06
-1.44185e-09
2.46986e-09
0.0010775
-2.55501e-07
1.21351e-06
2.54434e-07
8.94167e-07
-2.50424e-07
-8.9406e-07
2.47845e-07
-0.00107716
-1.20562e-06
-1.48652e-09
2.49606e-09
0.00107716
-2.55495e-07
1.2081e-06
2.54438e-07
8.93998e-07
-2.53119e-07
-8.93925e-07
2.50585e-07
-0.000264906
1.23921e-06
1.20576e-06
-2.20148e-07
-2.25328e-07
0.000262906
1.28591e-09
1.35874e-09
-0.00107712
-1.33432e-09
-1.36966e-09
0.00107712
-0.0010775
-1.21101e-06
-1.40866e-09
2.474e-09
0.0010775
-2.55506e-07
1.2135e-06
2.54429e-07
8.94157e-07
-2.50432e-07
-8.9407e-07
2.47838e-07
-0.00107716
-1.20562e-06
-1.44485e-09
2.50347e-09
0.00107716
-2.555e-07
1.20809e-06
2.54433e-07
8.93986e-07
-2.5313e-07
-8.93937e-07
2.50574e-07
-0.000264906
1.23922e-06
1.20577e-06
-2.20154e-07
-2.25334e-07
0.000262906
1.35229e-09
1.4278e-09
-0.00107712
-1.36519e-09
-1.39866e-09
0.00107712
-0.0010775
-1.21099e-06
-1.48414e-09
2.45269e-09
0.0010775
-2.55493e-07
1.21352e-06
2.54442e-07
8.94177e-07
-2.50414e-07
-8.9405e-07
2.47855e-07
-0.00107716
-1.20561e-06
-1.52638e-09
2.47721e-09
0.00107716
-2.55484e-07
1.20811e-06
2.54449e-07
8.94007e-07
-2.5311e-07
-8.93915e-07
2.50594e-07
-0.000264906
1.2392e-06
1.20575e-06
-2.20135e-07
-2.25316e-07
0.000262906
1.26576e-09
1.3434e-09
-0.00107712
-1.32661e-09
-1.35777e-09
0.00107712
-0.0010775
-1.21101e-06
-1.3776e-09
2.48615e-09
0.0010775
-2.55511e-07
1.2135e-06
2.54423e-07
8.94152e-07
-2.50438e-07
-8.94074e-07
2.47833e-07
-0.00107716
-1.20563e-06
-1.42241e-09
2.51269e-09
0.00107716
-2.55504e-07
1.20809e-06
2.54429e-07
8.93983e-07
-2.53134e-07
-8.93939e-07
2.5057e-07
-0.000264906
1.23923e-06
1.20578e-06
-2.20164e-07
-2.25342e-07
0.000262906
1.32718e-09
1.39739e-09
-0.00107712
-1.34797e-09
-1.38345e-09
0.00107712
-0.0010775
-1.211e-06
-1.45329e-09
2.46255e-09
0.0010775
-2.55496e-07
1.21351e-06
2.54438e-07
8.94169e-07
-2.50422e-07
-8.94058e-07
2.47848e-07
-0.00107716
-1.20561e-06
-1.50301e-09
2.48592e-09
0.00107716
-2.55488e-07
1.2081e-06
2.54446e-07
8.94001e-07
-2.53116e-07
-8.93922e-07
2.50588e-07
-0.000264906
1.2392e-06
1.20576e-06
-2.2014e-07
-2.25321e-07
0.000262906
1.23815e-09
1.30451e-09
-0.00107712
-1.29964e-09
-1.33997e-09
0.00107712
-0.0010775
-1.21101e-06
-1.36919e-09
2.49862e-09
0.0010775
-2.55514e-07
1.21349e-06
2.54419e-07
8.94151e-07
-2.5044e-07
-8.94075e-07
2.4783e-07
-0.00107716
-1.20563e-06
-1.40009e-09
2.53097e-09
0.00107716
-2.55511e-07
1.20808e-06
2.54422e-07
8.93979e-07
-2.53138e-07
-8.93943e-07
2.50565e-07
-0.000264906
1.23923e-06
1.20578e-06
-2.20163e-07
-2.25342e-07
0.000262906
1.28697e-09
1.3626e-09
-0.00107712
-1.3294e-09
-1.3658e-09
0.00107712
-0.0010775
-1.211e-06
-1.42197e-09
2.47225e-09
0.0010775
-2.55503e-07
1.21351e-06
2.54432e-07
8.94162e-07
-2.50429e-07
-8.94066e-07
2.47841e-07
-0.00107716
-1.20563e-06
-1.45857e-09
2.50228e-09
0.00107716
-2.55466e-07
1.20809e-06
2.54436e-07
8.93992e-07
-2.53127e-07
-8.93933e-07
2.5058e-07
-0.000264906
1.23921e-06
1.20577e-06
-2.20152e-07
-2.25332e-07
0.000262906
1.31253e-09
1.39667e-09
-0.00107712
-1.3536e-09
-1.38323e-09
0.00107712
-0.0010775
-1.211e-06
-1.41517e-09
2.46943e-09
0.0010775
-2.55504e-07
1.2135e-06
2.54428e-07
8.94158e-07
-2.5043e-07
-8.94066e-07
2.47837e-07
-0.00107716
-1.20563e-06
-1.46446e-09
2.49268e-09
0.00107716
-2.55465e-07
1.20809e-06
2.54434e-07
8.93991e-07
-2.53126e-07
-8.93931e-07
2.50577e-07
-0.000264906
1.23921e-06
1.20577e-06
-2.20154e-07
-2.25333e-07
0.000262906
1.34427e-09
1.41112e-09
-0.00107712
-1.34518e-09
-1.39003e-09
0.00107712
-0.0010775
-1.21099e-06
-1.50795e-09
2.42333e-09
0.0010775
-2.55487e-07
1.2135e-06
2.54423e-07
8.9414e-07
-2.50396e-07
-8.94037e-07
2.47808e-07
-0.00107716
-1.20562e-06
-1.51847e-09
2.46231e-09
0.00107716
-2.55455e-07
1.20809e-06
2.54423e-07
8.93966e-07
-2.53098e-07
-8.9391e-07
2.5054e-07
-0.000264906
1.2392e-06
1.20575e-06
-2.20137e-07
-2.25316e-07
0.000262906
1.42046e-09
1.51113e-09
-0.00107712
-1.40881e-09
-1.43296e-09
0.00107712
-0.0010775
-1.21085e-06
-1.57423e-09
2.19588e-09
0.0010775
-2.55328e-07
1.21341e-06
2.5432e-07
8.93649e-07
-2.49628e-07
-8.93588e-07
2.46837e-07
-0.00107716
-1.20547e-06
-1.6016e-09
2.21834e-09
0.00107716
-2.55293e-07
1.20801e-06
2.54293e-07
8.93475e-07
-2.52323e-07
-8.93455e-07
2.49571e-07
-0.000264906
1.23906e-06
1.20561e-06
-2.19912e-07
-2.25093e-07
0.000262906
-8.60036e-11
5.00757e-12
-0.00107712
-1.25708e-09
-1.25822e-09
0.00107712
-0.0010775
-1.20972e-06
-3.27564e-11
2.23354e-09
0.0010775
-2.53463e-07
1.21176e-06
2.5142e-07
8.92374e-07
-2.46213e-07
-8.92496e-07
2.43046e-07
-0.00107716
-1.20435e-06
-6.30817e-11
2.2554e-09
0.00107716
-2.53433e-07
1.20636e-06
2.51397e-07
8.92204e-07
-2.48905e-07
-8.9237e-07
2.45784e-07
-0.000264907
1.23794e-06
1.20448e-06
-2.17797e-07
-2.22981e-07
0.000262905
-4.32702e-09
-4.2681e-09
-0.00107712
-8.22522e-10
-8.06011e-10
0.00107713
-0.0010775
-1.21016e-06
4.22661e-09
4.64942e-09
0.0010775
-2.52892e-07
1.21201e-06
2.52e-07
8.92269e-07
-2.44687e-07
-8.94776e-07
2.39546e-07
-0.00107716
-1.20478e-06
4.18837e-09
4.66423e-09
0.00107716
-2.52902e-07
1.20661e-06
2.52026e-07
8.92095e-07
-2.47413e-07
-8.94591e-07
2.42315e-07
-0.000264909
1.23837e-06
1.20491e-06
-2.16814e-07
-2.21997e-07
0.000262904
-1.11901e-09
-9.66969e-10
-0.00107712
-3.76238e-09
-8.61101e-09
0.00107713
-0.00107751
-1.20548e-06
5.81867e-09
7.55742e-10
0.00107751
-2.46878e-07
1.20749e-06
2.47178e-07
8.87014e-07
-2.35208e-07
-8.90484e-07
2.26258e-07
-0.00107718
-1.19742e-06
9.04049e-10
5.48369e-09
0.00107718
-2.46808e-07
1.19943e-06
2.44409e-07
8.84173e-07
-2.35135e-07
-8.87583e-07
2.29062e-07
-0.000264918
1.2363e-06
1.2002e-06
-2.0597e-07
-2.11116e-07
0.000262899
8.06279e-07
8.13331e-07
-0.00107699
-6.98818e-07
-6.88828e-07
0.00107676
-0.00107776
-1.11726e-06
-8.07547e-07
-3.59294e-07
0.00107809
-1.70898e-07
1.36298e-06
3.40329e-07
1.02376e-06
-1.32787e-07
-7.86306e-07
3.20199e-07
-0.00107744
-1.10912e-06
-8.18226e-07
-3.70196e-07
0.00107779
-1.70749e-07
1.35777e-06
3.43218e-07
1.0208e-06
-1.38338e-07
-7.83384e-07
3.23008e-07
-0.000264994
1.15079e-06
1.10927e-06
-1.25203e-07
-1.27676e-07
0.000262987
4.89394e-06
4.88728e-06
-0.00106327
-1.0489e-05
-1.0393e-05
0.000258072
0.000261513
0.000260555
0.000260555
3.96303e-06
6.29473e-06
6.57786e-06
3.96666e-06
6.29542e-06
6.58115e-06
-0.000266601
5.092e-06
-4.88471e-06
5.65749e-06
-3.22988e-06
0.000263966
-0.000266578
-4.88689e-06
5.09717e-06
-3.23766e-06
5.65457e-06
0.000263951
-0.000265466
-5.08899e-06
-5.09998e-06
5.70871e-06
5.6969e-06
0.00026425
-1.2469e-06
-1.21083e-06
0.000264921
-0.000262911
2.20099e-07
2.27673e-07
0.00107673
-7.03993e-09
2.60747e-09
-1.24447e-06
2.59724e-07
-2.60972e-07
-8.93976e-07
2.47548e-07
-2.50292e-07
8.93844e-07
1.25235e-06
0.00107716
-1.01505e-09
-0.00107716
2.51481e-09
-1.24988e-06
2.62628e-07
-2.63718e-07
-8.99477e-07
2.50551e-07
-2.53028e-07
8.9954e-07
-1.21341e-06
0.00026495
-0.000262932
2.22779e-07
2.25079e-07
0.00107777
3.79813e-09
-2.9071e-09
-1.20824e-06
2.5723e-07
-2.58185e-07
-8.96623e-07
2.50476e-07
-2.53122e-07
8.96772e-07
1.247e-06
0.00107684
-1.30584e-09
2.47802e-09
-1.24443e-06
2.62621e-07
-2.63676e-07
-8.96691e-07
2.5039e-07
-2.53053e-07
8.96674e-07
-1.31247e-09
-0.0010775
2.37285e-09
-1.21093e-06
2.54331e-07
-2.55371e-07
-8.93862e-07
2.47841e-07
8.94071e-07
-2.50159e-07
1.24159e-06
0.00107664
-1.24793e-09
-0.00107664
2.54566e-09
-1.23911e-06
2.56998e-07
-2.58064e-07
-8.96541e-07
2.47747e-07
-2.50093e-07
8.96695e-07
-1.20794e-06
0.0002649
-0.000262893
2.20179e-07
2.27522e-07
-1.25784e-09
2.53982e-09
-1.20558e-06
2.54233e-07
-2.55457e-07
-8.93786e-07
2.50359e-07
8.9381e-07
-2.53023e-07
1.20813e-06
0.00107767
3.81834e-09
-0.00107768
7.44869e-09
-1.20565e-06
2.54421e-07
-2.55443e-07
-8.93955e-07
2.50597e-07
-2.52972e-07
8.94145e-07
-0.000262906
2.22567e-07
2.27762e-07
1.24446e-06
1.2083e-06
-2.17545e-07
-2.25245e-07
0.000262911
-1.24695e-06
-1.21085e-06
0.000264921
-0.000262911
2.20172e-07
2.27819e-07
2.69992e-09
0.00107672
-2.60925e-07
1.24695e-06
2.59809e-07
8.93981e-07
-2.50154e-07
-8.93895e-07
2.47719e-07
-1.24985e-06
-1.25938e-09
7.42894e-09
0.00107716
-2.63693e-07
1.25237e-06
2.62652e-07
8.99642e-07
-2.52918e-07
-8.99386e-07
2.50628e-07
0.00107672
-1.91677e-09
-0.00107672
2.4522e-09
-1.24444e-06
2.59874e-07
-2.60829e-07
-8.93708e-07
2.47917e-07
-2.49941e-07
8.94135e-07
1.25244e-06
0.00107716
-1.94736e-09
-0.00107716
2.4052e-09
-1.24986e-06
2.6277e-07
-2.6368e-07
-8.99262e-07
2.50877e-07
-2.52792e-07
8.99852e-07
-2.20248e-07
-2.2252e-07
0.000262932
-1.21357e-06
0.000264949
-0.000262931
2.22973e-07
2.25213e-07
2.38352e-09
0.00107777
-2.58227e-07
1.21078e-06
2.57199e-07
8.96828e-07
-2.53006e-07
-8.96607e-07
2.50587e-07
-1.2445e-06
-1.41123e-09
2.56504e-09
0.00107684
-2.63694e-07
1.24698e-06
2.62637e-07
8.96716e-07
-2.52953e-07
-8.96593e-07
2.50529e-07
0.00107776
-2.0042e-09
-0.00107776
2.30372e-09
-1.20828e-06
2.57271e-07
-2.58192e-07
-8.96452e-07
2.50841e-07
-2.52792e-07
8.97021e-07
1.247e-06
0.00107683
-1.88311e-09
-0.00107683
2.47564e-09
-1.24449e-06
2.62694e-07
-2.6365e-07
-8.96435e-07
2.50745e-07
-2.52751e-07
8.96873e-07
3.47362e-09
2.51696e-09
0.00107663
-2.58033e-07
1.24159e-06
2.5701e-07
8.94095e-07
-2.49983e-07
2.47815e-07
-8.96446e-07
-2.06624e-09
-0.0010775
2.21832e-09
-1.21086e-06
2.54521e-07
-2.55299e-07
-8.93692e-07
2.48122e-07
8.94344e-07
-2.49951e-07
1.2417e-06
0.00107663
-1.95624e-09
-0.00107663
2.36999e-09
-1.23908e-06
2.57168e-07
-2.57989e-07
-8.93702e-07
2.48033e-07
-2.49915e-07
8.94277e-07
-2.17771e-07
-2.25041e-07
0.000262893
-1.20805e-06
0.0002649
-0.000262893
2.20334e-07
2.2762e-07
-1.30287e-09
2.38739e-09
0.00107767
-2.55414e-07
1.20813e-06
2.54426e-07
8.94223e-07
-2.52873e-07
2.50654e-07
-8.93916e-07
-1.89767e-09
-0.00107716
2.35963e-09
-1.20552e-06
2.54412e-07
-2.55329e-07
-8.93558e-07
2.50711e-07
8.94106e-07
-2.52724e-07
1.20821e-06
0.00107767
-2.031e-09
-0.00107767
2.3452e-09
-1.20564e-06
2.54546e-07
-2.55398e-07
-8.93797e-07
2.50899e-07
-2.52765e-07
8.9445e-07
-0.000262905
2.22685e-07
2.27918e-07
1.24441e-06
1.20827e-06
-2.17525e-07
-2.25161e-07
0.000262911
-1.24698e-06
-1.21082e-06
0.00026492
-0.00026291
2.20005e-07
2.2767e-07
2.2847e-09
0.00107672
-2.60794e-07
1.24705e-06
2.6e-07
8.94226e-07
-2.49923e-07
-8.93707e-07
2.48028e-07
-1.24986e-06
-1.82611e-09
2.56686e-09
0.00107715
-2.63679e-07
1.25243e-06
2.6277e-07
8.9985e-07
-2.52766e-07
-8.99282e-07
2.50949e-07
0.00107672
-7.72591e-10
-0.00107672
2.41441e-09
-1.24459e-06
2.59807e-07
-2.6105e-07
-8.94299e-07
2.47399e-07
-2.5048e-07
8.93722e-07
1.2524e-06
0.00107716
-6.91998e-10
-0.00107715
2.87102e-09
-1.25011e-06
2.62603e-07
-2.64065e-07
-8.99925e-07
2.50077e-07
-2.53714e-07
8.99393e-07
-2.20134e-07
-2.2247e-07
0.000262931
-1.21353e-06
0.000264949
-0.000262931
2.22759e-07
2.24978e-07
2.25379e-09
0.00107776
-2.58169e-07
1.21092e-06
2.57372e-07
8.97134e-07
-2.52757e-07
-8.96415e-07
2.50963e-07
-1.24448e-06
-2.0226e-09
2.41399e-09
0.00107683
-2.63631e-07
1.24708e-06
2.62796e-07
8.9698e-07
-2.52714e-07
-8.96418e-07
2.50861e-07
0.00107776
-1.00352e-09
-0.00107776
2.51026e-09
-1.20848e-06
2.57162e-07
-2.58446e-07
-8.97026e-07
2.50321e-07
-2.53319e-07
8.9661e-07
1.24699e-06
0.00107683
-9.32579e-10
-0.00107683
2.5683e-09
-1.24469e-06
2.6259e-07
-2.63918e-07
-8.96992e-07
2.50294e-07
-2.53217e-07
8.9649e-07
-1.70489e-09
2.4129e-09
0.00107663
-2.57965e-07
1.24169e-06
2.57163e-07
8.94212e-07
-2.499e-07
2.4806e-07
-8.93732e-07
-5.54028e-10
-0.0010775
2.522e-09
-1.21107e-06
2.54367e-07
-2.55634e-07
-8.9443e-07
2.47273e-07
8.93861e-07
-2.50962e-07
1.24169e-06
0.00107663
-3.81935e-10
-0.00107663
2.61717e-09
-1.23928e-06
2.57032e-07
-2.58332e-07
-8.94447e-07
2.47158e-07
-2.50934e-07
8.93786e-07
-2.17669e-07
-2.25e-07
0.000262892
-1.20808e-06
0.000264899
-0.000262892
2.20197e-07
2.27449e-07
-1.94485e-09
2.49057e-09
0.00107767
-2.55392e-07
1.20819e-06
2.54533e-07
8.94464e-07
-2.52729e-07
2.50985e-07
-8.93799e-07
-8.77529e-10
-0.00107716
2.32629e-09
-1.20567e-06
2.54348e-07
-2.55555e-07
-8.94147e-07
2.50253e-07
8.93685e-07
-2.53193e-07
1.20817e-06
0.00107767
-8.59719e-10
-0.00107767
2.78447e-09
-1.2059e-06
2.54379e-07
-2.55802e-07
-8.94441e-07
2.50153e-07
-2.53646e-07
8.94003e-07
-0.000262905
2.22447e-07
2.27732e-07
1.24459e-06
1.20848e-06
-2.17807e-07
-2.25438e-07
0.00026291
-1.24699e-06
-1.21083e-06
0.000264921
-0.000262911
2.20041e-07
2.27736e-07
2.52696e-09
0.00107672
-2.61123e-07
1.24703e-06
2.59832e-07
8.93802e-07
-2.50881e-07
-8.94379e-07
2.47216e-07
-1.25007e-06
-6.20712e-10
2.72095e-09
0.00107716
-2.63987e-07
1.25244e-06
2.62681e-07
8.99466e-07
-2.53806e-07
-8.99958e-07
2.50165e-07
0.00107672
-8.87171e-10
-0.00107672
2.69255e-09
-1.24463e-06
2.59839e-07
-2.61088e-07
-8.94141e-07
2.47649e-07
-2.50557e-07
8.94011e-07
1.25232e-06
0.00107716
-5.10106e-10
-0.00107716
2.93708e-09
-1.25016e-06
2.62579e-07
-2.64029e-07
-8.99873e-07
2.50374e-07
-2.53534e-07
8.99495e-07
-2.20477e-07
-2.22801e-07
0.000262931
-1.21341e-06
0.00026495
-0.000262932
2.22682e-07
2.24962e-07
2.56286e-09
0.00107776
-2.58506e-07
1.21087e-06
2.57196e-07
8.967e-07
-2.53712e-07
-8.97088e-07
2.50155e-07
-1.24469e-06
-7.96323e-10
2.64301e-09
0.00107683
-2.63976e-07
1.24705e-06
2.62632e-07
8.96565e-07
-2.53634e-07
-8.97074e-07
2.50075e-07
0.00107777
-1.09934e-09
-0.00107777
2.6549e-09
-1.20852e-06
2.57219e-07
-2.58453e-07
-8.96877e-07
2.50595e-07
-2.53358e-07
8.96877e-07
1.24702e-06
0.00107683
-9.35242e-10
-0.00107683
2.76808e-09
-1.24473e-06
2.62647e-07
-2.63939e-07
-8.96865e-07
2.50477e-07
-2.53348e-07
8.96747e-07
-6.0075e-10
2.6788e-09
0.00107663
-2.58289e-07
1.24168e-06
2.57067e-07
8.93912e-07
-2.50941e-07
2.4731e-07
-8.94361e-07
-7.64508e-10
-0.0010775
2.78277e-09
-1.21119e-06
2.54295e-07
-2.55673e-07
-8.9427e-07
2.47648e-07
8.93975e-07
-2.50645e-07
1.24157e-06
0.00107663
-5.89534e-10
-0.00107663
2.88438e-09
-1.2394e-06
2.56962e-07
-2.58363e-07
-8.94296e-07
2.47533e-07
-2.50631e-07
8.93901e-07
-2.17934e-07
-2.25292e-07
0.000262892
-1.20809e-06
0.0002649
-0.000262893
2.20231e-07
2.27517e-07
-8.15149e-10
2.5622e-09
0.00107767
-2.557e-07
1.20823e-06
2.54475e-07
8.94077e-07
-2.53727e-07
2.50239e-07
-8.94474e-07
-1.00225e-09
-0.00107716
2.58977e-09
-1.20572e-06
2.54396e-07
-2.55575e-07
-8.94025e-07
2.50439e-07
8.93955e-07
-2.53333e-07
1.20808e-06
0.00107767
-5.68464e-10
-0.00107767
2.81931e-09
-1.20596e-06
2.54346e-07
-2.55774e-07
-8.94386e-07
2.50433e-07
-2.5346e-07
8.94103e-07
-0.000262906
2.22428e-07
2.27642e-07
1.24471e-06
1.20859e-06
-2.17822e-07
-2.25432e-07
0.000262911
-1.24699e-06
-1.21091e-06
0.000264922
-0.000262911
2.20112e-07
2.27726e-07
2.91309e-09
0.00107672
-2.61186e-07
1.24688e-06
2.59713e-07
8.9391e-07
-2.50582e-07
-8.94217e-07
2.47558e-07
-1.25019e-06
-4.48846e-10
2.87166e-09
0.00107716
-2.64089e-07
1.2523e-06
2.62538e-07
8.99465e-07
-2.53567e-07
-8.99923e-07
2.50349e-07
0.00107673
-1.20477e-09
-0.00107673
2.86849e-09
-1.24466e-06
2.59853e-07
-2.6114e-07
-8.94127e-07
2.47696e-07
-2.50547e-07
8.94098e-07
1.25261e-06
0.00107716
-1.31693e-09
-0.00107716
2.05066e-09
-1.24987e-06
2.62926e-07
-2.63721e-07
-8.99662e-07
2.50643e-07
-2.533e-07
8.99753e-07
-2.20563e-07
-2.22868e-07
0.000262932
-1.21364e-06
0.00026495
-0.000262932
2.22959e-07
2.25275e-07
2.80259e-09
0.00107777
-2.5854e-07
1.21074e-06
2.57113e-07
8.96744e-07
-2.53423e-07
-8.96976e-07
2.5046e-07
-1.24478e-06
-5.88719e-10
2.87703e-09
0.00107683
-2.64018e-07
1.24695e-06
2.62548e-07
8.96636e-07
-2.53405e-07
-8.9695e-07
2.50364e-07
0.00107777
-1.07371e-09
-0.00107777
2.48934e-09
-1.20848e-06
2.57311e-07
-2.58427e-07
-8.96953e-07
2.50557e-07
-2.53449e-07
8.96899e-07
1.24713e-06
0.00107684
-9.11755e-10
-0.00107684
2.48219e-09
-1.24464e-06
2.62766e-07
-2.6388e-07
-8.96939e-07
2.50463e-07
-2.53406e-07
8.96749e-07
-5.87011e-10
2.90402e-09
0.00107663
-2.58421e-07
1.24154e-06
2.56915e-07
8.93873e-07
-2.50679e-07
2.47496e-07
-8.94358e-07
-1.87241e-09
-0.0010775
2.30036e-09
-1.21096e-06
2.54586e-07
-2.5541e-07
-8.93986e-07
2.47947e-07
8.94315e-07
-2.50404e-07
1.24183e-06
0.00107663
-1.73825e-09
-0.00107663
2.28308e-09
-1.23914e-06
2.57295e-07
-2.58076e-07
-8.93999e-07
2.47854e-07
-2.50352e-07
8.94243e-07
-2.17972e-07
-2.25269e-07
0.000262893
-1.2081e-06
0.000264901
-0.000262893
2.20241e-07
2.2762e-07
-4.98894e-10
2.78759e-09
0.00107767
-2.55834e-07
1.20806e-06
2.54303e-07
8.9407e-07
-2.53521e-07
2.50379e-07
-8.94441e-07
-1.51139e-09
-0.00107716
2.74859e-09
-1.20575e-06
2.54422e-07
-2.55614e-07
-8.93924e-07
2.50554e-07
8.94114e-07
-2.53246e-07
1.2084e-06
0.00107767
-1.45063e-09
-0.00107767
1.9777e-09
-1.20566e-06
2.54738e-07
-2.55434e-07
-8.94175e-07
2.50662e-07
-2.53278e-07
8.9436e-07
-0.000262906
2.22777e-07
2.27956e-07
1.24453e-06
1.20836e-06
-2.17606e-07
-2.2528e-07
0.000262912
-1.24706e-06
-1.21094e-06
0.000264921
-0.000262911
2.20184e-07
2.2784e-07
2.64566e-09
0.00107673
-2.60999e-07
1.24706e-06
2.59944e-07
8.94174e-07
-2.50411e-07
-8.94007e-07
2.47794e-07
-1.24982e-06
-1.44383e-09
2.09814e-09
0.00107716
-2.63672e-07
1.2526e-06
2.62919e-07
8.99775e-07
-2.53235e-07
-8.9959e-07
2.50667e-07
0.00107672
-1.59545e-09
-0.00107673
2.42628e-09
-1.24446e-06
2.59946e-07
-2.60932e-07
-8.9393e-07
2.47853e-07
-2.50293e-07
8.94166e-07
1.25247e-06
0.00107716
-1.33418e-09
-0.00107716
2.45956e-09
-1.24992e-06
2.62768e-07
-2.638e-07
-8.9961e-07
2.50638e-07
-2.53236e-07
8.99711e-07
-2.20204e-07
-2.22464e-07
0.000262932
-1.21355e-06
0.00026495
-0.000262932
2.22873e-07
2.2515e-07
2.3399e-09
0.00107777
-2.58293e-07
1.21097e-06
2.57391e-07
8.97008e-07
-2.53305e-07
-8.96793e-07
2.50668e-07
-1.24452e-06
-1.22724e-09
2.3444e-09
0.00107684
-2.63749e-07
1.24719e-06
2.62846e-07
8.96846e-07
-2.53281e-07
-8.96806e-07
2.50557e-07
0.00107777
-1.66285e-09
-0.00107777
2.31554e-09
-1.20832e-06
2.57363e-07
-2.58256e-07
-8.96718e-07
2.50743e-07
-2.53164e-07
8.96998e-07
1.24713e-06
0.00107684
-1.47306e-09
-0.00107684
2.37394e-09
-1.24451e-06
2.6279e-07
-2.63737e-07
-8.96706e-07
2.5064e-07
-2.53138e-07
8.96862e-07
-1.78933e-09
2.21498e-09
0.00107663
-2.5801e-07
1.24184e-06
2.57292e-07
8.94238e-07
-2.50293e-07
2.47865e-07
-8.93947e-07
-1.62248e-09
-0.0010775
2.38709e-09
-1.21096e-06
2.54481e-07
-2.55443e-07
-8.94008e-07
2.47908e-07
8.94208e-07
-2.5037e-07
1.24174e-06
0.00107663
-1.47837e-09
-0.00107663
2.39831e-09
-1.23915e-06
2.57178e-07
-2.58112e-07
-8.94024e-07
2.47799e-07
-2.50335e-07
8.94133e-07
-2.178e-07
-2.25031e-07
0.000262893
-1.20817e-06
0.0002649
-0.000262893
2.20353e-07
2.27664e-07
-1.60611e-09
2.00808e-09
0.00107767
-2.55379e-07
1.20839e-06
2.54716e-07
8.94392e-07
-2.53211e-07
2.50693e-07
-8.941e-07
-1.78999e-09
-0.00107716
2.358e-09
-1.20555e-06
2.54514e-07
-2.5541e-07
-8.93791e-07
2.50664e-07
8.94128e-07
-2.5305e-07
1.20825e-06
0.00107767
-1.45888e-09
-0.00107767
2.34189e-09
-1.20572e-06
2.54557e-07
-2.55531e-07
-8.94107e-07
2.50688e-07
-2.53183e-07
8.94331e-07
-0.000262906
2.22632e-07
2.27864e-07
1.24448e-06
1.20835e-06
-2.17604e-07
-2.25239e-07
0.000262911
-1.24699e-06
-1.21086e-06
0.000264921
-0.000262911
2.20101e-07
2.27766e-07
2.48382e-09
0.00107672
-2.60965e-07
1.24702e-06
2.59909e-07
8.94109e-07
-2.50327e-07
-8.93984e-07
2.47799e-07
-1.24995e-06
-1.2522e-09
2.53094e-09
0.00107716
-2.63835e-07
1.25244e-06
2.62736e-07
8.99689e-07
-2.53267e-07
-8.99635e-07
2.50605e-07
0.00107672
-1.35408e-09
-0.00107672
2.57061e-09
-1.24454e-06
2.59872e-07
-2.61015e-07
-8.94007e-07
2.47785e-07
-2.50368e-07
8.94102e-07
1.25242e-06
0.00107716
-1.17652e-09
-0.00107716
2.58298e-09
-1.24998e-06
2.62715e-07
-2.63866e-07
-8.99656e-07
2.50595e-07
-2.53284e-07
8.99673e-07
-2.20311e-07
-2.22609e-07
0.000262932
-1.21351e-06
0.00026495
-0.000262932
2.22828e-07
2.25099e-07
2.39855e-09
0.00107777
-2.58298e-07
1.21089e-06
2.57318e-07
8.96963e-07
-2.53193e-07
-8.96747e-07
2.50697e-07
-1.24455e-06
-1.38295e-09
2.47597e-09
0.00107684
-2.63788e-07
1.24709e-06
2.62742e-07
8.9683e-07
-2.53169e-07
-8.96737e-07
2.50601e-07
0.00107777
-1.44297e-09
-0.00107777
2.47047e-09
-1.2084e-06
2.57281e-07
-2.5835e-07
-8.96786e-07
2.50684e-07
-2.5323e-07
8.9694e-07
1.24704e-06
0.00107684
-1.2887e-09
-0.00107684
2.57445e-09
-1.24461e-06
2.627e-07
-2.63843e-07
-8.96764e-07
2.50585e-07
-2.53196e-07
8.96813e-07
-1.39192e-09
2.46764e-09
0.00107663
-2.58146e-07
1.24171e-06
2.57136e-07
8.94109e-07
-2.50376e-07
2.47758e-07
-8.94055e-07
-1.41435e-09
-0.0010775
2.47334e-09
-1.21101e-06
2.54433e-07
-2.55501e-07
-8.94062e-07
2.4786e-07
8.94164e-07
-2.50426e-07
1.24168e-06
0.00107663
-1.29559e-09
-0.00107663
2.55949e-09
-1.23921e-06
2.57119e-07
-2.58182e-07
-8.94075e-07
2.47751e-07
-2.50392e-07
8.94094e-07
-2.1776e-07
-2.2506e-07
0.000262893
-1.20811e-06
0.0002649
-0.000262893
2.20284e-07
2.27572e-07
-1.35419e-09
2.40165e-09
0.00107767
-2.55567e-07
1.20822e-06
2.54516e-07
8.94293e-07
-2.53229e-07
2.5064e-07
-8.94152e-07
-1.48104e-09
-0.00107716
2.47274e-09
-1.20562e-06
2.54443e-07
-2.55491e-07
-8.9388e-07
2.50586e-07
8.94051e-07
-2.53133e-07
1.2082e-06
0.00107767
-1.18184e-09
-0.00107767
2.44739e-09
-1.20578e-06
2.54505e-07
-2.55595e-07
-8.94191e-07
2.50628e-07
-2.53249e-07
8.94269e-07
-0.000262906
2.22582e-07
2.27804e-07
1.24454e-06
1.20841e-06
-2.1767e-07
-2.253e-07
0.000262911
-1.24699e-06
-1.21086e-06
0.000264921
-0.000262911
2.20104e-07
2.27766e-07
2.59109e-09
0.00107672
-2.61024e-07
1.24698e-06
2.59862e-07
8.9407e-07
-2.50381e-07
-8.94035e-07
2.47754e-07
-1.24998e-06
-1.14226e-09
2.60413e-09
0.00107716
-2.63874e-07
1.25241e-06
2.62706e-07
8.99661e-07
-2.53303e-07
-8.99669e-07
2.50573e-07
0.00107672
-1.35269e-09
-0.00107672
2.58366e-09
-1.24454e-06
2.59872e-07
-2.61018e-07
-8.94011e-07
2.47784e-07
-2.50372e-07
8.941e-07
1.25243e-06
0.00107716
-1.18352e-09
-0.00107716
2.56604e-09
-1.24998e-06
2.62723e-07
-2.63862e-07
-8.99658e-07
2.50596e-07
-2.53286e-07
8.99673e-07
-2.20347e-07
-2.22649e-07
0.000262932
-1.21351e-06
0.00026495
-0.000262932
2.22832e-07
2.25105e-07
2.4964e-09
0.00107777
-2.58362e-07
1.21085e-06
2.57267e-07
8.96927e-07
-2.5324e-07
-8.96794e-07
2.50658e-07
-1.24461e-06
-1.23986e-09
2.61649e-09
0.00107684
-2.63855e-07
1.24703e-06
2.62687e-07
8.96798e-07
-2.53216e-07
-8.96778e-07
2.50562e-07
0.00107777
-1.42903e-09
-0.00107777
2.46683e-09
-1.2084e-06
2.57283e-07
-2.58352e-07
-8.96792e-07
2.50681e-07
-2.53236e-07
8.96937e-07
1.24704e-06
0.00107684
-1.27732e-09
-0.00107684
2.58408e-09
-1.24461e-06
2.62698e-07
-2.63849e-07
-8.96769e-07
2.50584e-07
-2.53201e-07
8.9681e-07
-1.24502e-09
2.58916e-09
0.00107663
-2.58193e-07
1.24167e-06
2.57094e-07
8.94078e-07
-2.50417e-07
2.47721e-07
-8.94091e-07
-1.43665e-09
-0.0010775
2.45935e-09
-1.21101e-06
2.54439e-07
-2.55499e-07
-8.9406e-07