/*--------------------------------*- C++ -*----------------------------------*\
| =========                 |                                                 |
| \\      /  F ield         | OpenFOAM: The Open Source CFD Toolbox           |
|  \\    /   O peration     | Version:  v1912                                 |
|   \\  /    A nd           | Website:  www.openfoam.com                      |
|    \\/     M anipulation  |                                                 |
\*---------------------------------------------------------------------------*/
FoamFile
{
    version     2.0;
    format      ascii;
    class       volVectorField;
    location    "20";
    object      U;
}
// * * * * * * * * * * * * * * * * * * * * * * * * * * * * * * * * * * * * * //

dimensions      [0 1 -1 0 0 0 0];


internalField   nonuniform List<vector> 
57062
(
(-5.94242e-07 -6.30282e-07 0.102327)
(-4.29526e-07 6.71927e-07 0.102297)
(6.96611e-07 -4.38055e-07 0.102297)
(-4.13995e-05 -4.14156e-05 0.102252)
(-6.6363e-07 -6.68922e-07 0.102327)
(-4.10358e-07 6.6264e-07 0.102297)
(6.49562e-07 -3.89678e-07 0.102297)
(-4.14e-05 -4.13986e-05 0.102252)
(-5.71109e-07 -5.6512e-07 0.102327)
(-4.81128e-07 6.97489e-07 0.102297)
(6.77078e-07 -4.94535e-07 0.102297)
(-4.1516e-05 -4.15169e-05 0.102252)
(-5.69764e-07 -5.80508e-07 0.102327)
(-5.04731e-07 7.30984e-07 0.102297)
(7.34581e-07 -4.95839e-07 0.102297)
(-4.1559e-05 -4.15635e-05 0.102252)
(-6.06314e-07 -6.21531e-07 0.102327)
(-4.0563e-07 6.48797e-07 0.102297)
(6.79703e-07 -4.04402e-07 0.102297)
(-4.13936e-05 -4.14134e-05 0.102252)
(-6.25329e-07 -6.25811e-07 0.102327)
(-4.37995e-07 6.75871e-07 0.102297)
(6.7335e-07 -4.23368e-07 0.102297)
(-4.14523e-05 -4.14528e-05 0.102252)
(-6.14651e-07 -6.15587e-07 0.102327)
(-4.51525e-07 6.85946e-07 0.102297)
(6.87842e-07 -4.44292e-07 0.102297)
(-4.14676e-05 -4.1471e-05 0.102252)
(-6.14486e-07 -6.16639e-07 0.102327)
(-4.45418e-07 6.81965e-07 0.102297)
(6.85701e-07 -4.3941e-07 0.102297)
(-4.14624e-05 -4.14692e-05 0.102252)
(-6.14635e-07 -6.18017e-07 0.102327)
(-4.48649e-07 6.83945e-07 0.102297)
(6.87273e-07 -4.41056e-07 0.102297)
(-4.14617e-05 -4.14685e-05 0.102252)
(-6.15108e-07 -6.18682e-07 0.102327)
(-4.45823e-07 6.81501e-07 0.102297)
(6.8532e-07 -4.38028e-07 0.102297)
(-4.14625e-05 -4.14693e-05 0.102252)
(-6.12874e-07 -6.16459e-07 0.102327)
(-4.49035e-07 6.83945e-07 0.102297)
(6.87685e-07 -4.4139e-07 0.102297)
(-4.14631e-05 -4.14697e-05 0.102252)
(-6.14407e-07 -6.17251e-07 0.102327)
(-4.47958e-07 6.83515e-07 0.102297)
(6.86763e-07 -4.40552e-07 0.102297)
(-4.14629e-05 -4.1469e-05 0.102252)
(-6.12532e-07 -6.14539e-07 0.102327)
(-4.50617e-07 6.85435e-07 0.102297)
(6.88939e-07 -4.43816e-07 0.102297)
(-4.14664e-05 -4.14737e-05 0.102252)
(-6.12065e-07 -6.1462e-07 0.102327)
(-4.49277e-07 6.8485e-07 0.102297)
(6.884e-07 -4.42902e-07 0.102297)
(-4.14647e-05 -4.14709e-05 0.102252)
(-6.1306e-07 -6.1567e-07 0.102327)
(-4.49382e-07 6.84423e-07 0.102297)
(6.87908e-07 -4.43256e-07 0.102297)
(-4.14651e-05 -4.14721e-05 0.102252)
(-6.1496e-07 -6.17591e-07 0.102327)
(-4.46246e-07 6.82486e-07 0.102297)
(6.85797e-07 -4.39218e-07 0.102297)
(-4.14623e-05 -4.14693e-05 0.102252)
(-6.13053e-07 -6.16184e-07 0.102327)
(-4.49858e-07 6.839e-07 0.102297)
(6.87588e-07 -4.43513e-07 0.102297)
(-4.14648e-05 -4.14721e-05 0.102252)
(-6.17238e-07 -6.20179e-07 0.102327)
(-4.42405e-07 6.79759e-07 0.102297)
(6.82979e-07 -4.35678e-07 0.102297)
(-4.14573e-05 -4.14644e-05 0.102252)
(-6.11957e-07 -6.14764e-07 0.102327)
(-4.52117e-07 6.85619e-07 0.102297)
(6.88808e-07 -4.44979e-07 0.102297)
(-4.14688e-05 -4.14753e-05 0.102252)
(-6.1501e-07 -6.18422e-07 0.102327)
(-4.45415e-07 6.81272e-07 0.102297)
(6.84239e-07 -4.37855e-07 0.102297)
(-4.14593e-05 -4.14666e-05 0.102252)
(-6.08654e-07 -6.12754e-07 0.102327)
(-4.53007e-07 6.87446e-07 0.102297)
(6.91421e-07 -4.46482e-07 0.102297)
(-4.14684e-05 -4.14754e-05 0.102252)
(-6.12535e-07 -6.15908e-07 0.102327)
(-4.48143e-07 6.83111e-07 0.102297)
(6.87042e-07 -4.41522e-07 0.102297)
(-4.14641e-05 -4.14711e-05 0.102252)
(-6.15499e-07 -6.18048e-07 0.102327)
(-4.48783e-07 6.83199e-07 0.102297)
(6.86218e-07 -4.41095e-07 0.102297)
(-4.14648e-05 -4.14713e-05 0.102252)
(-6.17493e-07 -6.21724e-07 0.102327)
(-4.42792e-07 6.78914e-07 0.102297)
(6.83987e-07 -4.38194e-07 0.102297)
(-4.14593e-05 -4.1466e-05 0.102252)
(-6.44775e-07 -6.46894e-07 0.102327)
(-4.54227e-07 6.7701e-07 0.102297)
(6.79973e-07 -4.48586e-07 0.102297)
(-4.13879e-05 -4.13952e-05 0.102252)
(-6.79904e-07 -6.7881e-07 0.102328)
(-7.13139e-07 8.262e-07 0.102297)
(8.29972e-07 -7.06665e-07 0.102297)
(-4.07394e-05 -4.07498e-05 0.102252)
(-5.94783e-07 -5.92157e-07 0.10233)
(-1.51907e-06 1.38377e-06 0.102297)
(1.3869e-06 -1.51387e-06 0.102297)
(-4.0685e-05 -4.06982e-05 0.102252)
(-3.39452e-07 -3.28775e-07 0.102334)
(-3.53078e-06 2.8542e-06 0.102295)
(2.85034e-06 -3.50312e-06 0.102295)
(-3.77009e-05 -3.77024e-05 0.102252)
(-4.24656e-06 -4.18609e-06 0.102334)
(-4.66306e-06 4.63861e-06 0.102289)
(4.6059e-06 -4.63791e-06 0.102289)
(-2.85285e-05 -2.85059e-05 0.102252)
(-4.69968e-05 -4.68632e-05 0.102276)
(3.97866e-05 -3.51995e-05 0.102248)
(-3.52809e-05 3.9769e-05 0.102248)
(4.74198e-05 4.74583e-05 0.102219)
(-4.327e-05 -4.32852e-05 0.102254)
(7.29791e-07 5.11878e-07 0.102297)
(-6.97577e-07 4.87046e-07 0.102297)
(4.32855e-05 -4.32517e-05 0.102254)
(4.59392e-07 6.37619e-07 0.102297)
(4.58712e-07 -6.92456e-07 0.102297)
(-4.57022e-07 6.76789e-07 0.102297)
(-4.74259e-07 -6.90347e-07 0.102297)
(-4.32272e-05 4.3313e-05 0.102254)
(6.91661e-07 -4.56152e-07 0.102297)
(-6.78689e-07 -4.72327e-07 0.102297)
(4.3267e-05 4.32876e-05 0.102254)
(4.14427e-05 4.13909e-05 0.102252)
(-4.33188e-05 -4.32947e-05 0.102254)
(7.19082e-07 4.89969e-07 0.102297)
(-6.92569e-07 4.65153e-07 0.102297)
(6.92951e-07 4.23747e-07 0.102297)
(-6.77427e-07 4.05213e-07 0.102297)
(-4.14131e-05 4.1384e-05 0.102252)
(4.33401e-05 -4.33298e-05 0.102254)
(4.44316e-07 6.59156e-07 0.102297)
(4.42245e-07 -6.97023e-07 0.102297)
(3.97537e-07 6.55807e-07 0.102297)
(4.16601e-07 -6.85967e-07 0.102297)
(-4.44398e-07 -6.85112e-07 0.102297)
(-3.85139e-07 6.46168e-07 0.102297)
(-3.97708e-07 -6.61853e-07 0.102297)
(4.14224e-05 -4.14286e-05 0.102252)
(-4.32857e-05 4.3322e-05 0.102254)
(-6.7256e-07 -4.49567e-07 0.102297)
(6.6964e-07 -4.08836e-07 0.102297)
(-6.59486e-07 -3.87785e-07 0.102297)
(4.33103e-05 4.33461e-05 0.102254)
(4.14174e-05 4.13976e-05 0.102252)
(-4.33153e-05 -4.32803e-05 0.102254)
(6.69121e-07 4.13904e-07 0.102297)
(-7.04073e-07 4.22783e-07 0.102297)
(6.98193e-07 5.04912e-07 0.102297)
(-7.28114e-07 4.91663e-07 0.102297)
(-4.14086e-05 4.1355e-05 0.102252)
(4.33051e-05 -4.32976e-05 0.102254)
(3.82189e-07 6.45098e-07 0.102297)
(3.99218e-07 -6.69901e-07 0.102297)
(4.81347e-07 6.95764e-07 0.102297)
(4.92598e-07 -7.0711e-07 0.102297)
(-4.23929e-07 -6.77993e-07 0.102297)
(-4.97986e-07 6.89204e-07 0.102297)
(-5.15499e-07 -6.98616e-07 0.102297)
(4.13865e-05 -4.14354e-05 0.102252)
(-4.32859e-05 4.33065e-05 0.102254)
(-6.83865e-07 -4.01339e-07 0.102297)
(6.81881e-07 -4.92085e-07 0.102297)
(-7.07078e-07 -4.69558e-07 0.102297)
(4.32757e-05 4.33241e-05 0.102254)
(4.15048e-05 4.1491e-05 0.102252)
(-4.33244e-05 -4.32834e-05 0.102254)
(6.97484e-07 5.10632e-07 0.102297)
(-7.12439e-07 4.99306e-07 0.102297)
(7.23151e-07 5.0008e-07 0.102297)
(-7.53028e-07 5.28881e-07 0.102297)
(-4.15205e-05 4.14778e-05 0.102252)
(4.32866e-05 -4.32596e-05 0.102254)
(4.83354e-07 6.92858e-07 0.102297)
(4.93654e-07 -7.03423e-07 0.102297)
(4.69032e-07 7.0855e-07 0.102297)
(4.92319e-07 -7.24189e-07 0.102297)
(-5.04303e-07 -7.01664e-07 0.102297)
(-5.0308e-07 7.28665e-07 0.102297)
(-5.32355e-07 -7.41399e-07 0.102297)
(4.14702e-05 -4.15326e-05 0.102252)
(-4.32892e-05 4.33208e-05 0.102254)
(-6.84534e-07 -4.77314e-07 0.102297)
(7.02558e-07 -4.81189e-07 0.102297)
(-7.34061e-07 -5.19691e-07 0.102297)
(4.32529e-05 4.32848e-05 0.102254)
(4.15257e-05 4.1515e-05 0.102252)
(-4.33222e-05 -4.33104e-05 0.102254)
(7.54033e-07 5.26675e-07 0.102297)
(-7.49657e-07 5.33654e-07 0.102297)
(7.20941e-07 4.62026e-07 0.102297)
(-6.44429e-07 4.60009e-07 0.102297)
(-4.1553e-05 4.15136e-05 0.102252)
(4.33931e-05 -4.33489e-05 0.102254)
(5.04058e-07 7.33897e-07 0.102297)
(5.22805e-07 -7.46837e-07 0.102297)
(4.63065e-07 6.80898e-07 0.102297)
(4.83186e-07 -6.8409e-07 0.102297)
(-5.37106e-07 -7.43392e-07 0.102297)
(-4.11975e-07 6.52914e-07 0.102297)
(-4.36594e-07 -6.51335e-07 0.102297)
(4.15026e-05 -4.15457e-05 0.102252)
(-4.32908e-05 4.33599e-05 0.102254)
(-7.32637e-07 -5.2478e-07 0.102297)
(7.02362e-07 -4.29427e-07 0.102297)
(-6.22755e-07 -4.4035e-07 0.102297)
(4.33743e-05 4.33885e-05 0.102254)
(4.14608e-05 4.14265e-05 0.102252)
(-4.33502e-05 -4.33244e-05 0.102254)
(6.95217e-07 4.43647e-07 0.102297)
(-6.47743e-07 4.4996e-07 0.102297)
(6.77565e-07 4.33385e-07 0.102297)
(-6.85234e-07 4.58818e-07 0.102297)
(-4.14024e-05 4.13814e-05 0.102252)
(4.33411e-05 -4.3315e-05 0.102254)
(4.39528e-07 6.62255e-07 0.102297)
(4.5796e-07 -6.6482e-07 0.102297)
(4.23252e-07 6.59728e-07 0.102297)
(4.4278e-07 -6.69863e-07 0.102297)
(-4.33998e-07 -6.44842e-07 0.102297)
(-4.31471e-07 6.67878e-07 0.102297)
(-4.58763e-07 -6.6971e-07 0.102297)
(4.14319e-05 -4.14485e-05 0.102252)
(-4.33215e-05 4.33625e-05 0.102254)
(-6.24365e-07 -4.27909e-07 0.102297)
(6.63427e-07 -4.12442e-07 0.102297)
(-6.64295e-07 -4.42116e-07 0.102297)
(4.33157e-05 4.33512e-05 0.102254)
(4.14429e-05 4.14218e-05 0.102252)
(-4.33233e-05 -4.32948e-05 0.102254)
(6.87374e-07 4.50947e-07 0.102297)
(-6.95765e-07 4.65854e-07 0.102297)
(6.98887e-07 4.56344e-07 0.102297)
(-7.02711e-07 4.73012e-07 0.102297)
(-4.14525e-05 4.14146e-05 0.102252)
(4.3322e-05 -4.32983e-05 0.102254)
(4.37114e-07 6.73532e-07 0.102297)
(4.5219e-07 -6.84445e-07 0.102297)
(4.43723e-07 6.83637e-07 0.102297)
(4.60106e-07 -6.97438e-07 0.102297)
(-4.67308e-07 -6.79296e-07 0.102297)
(-4.488e-07 6.82198e-07 0.102297)
(-4.74021e-07 -6.90677e-07 0.102297)
(4.14132e-05 -4.14566e-05 0.102252)
(-4.32961e-05 4.33291e-05 0.102254)
(-6.72844e-07 -4.50792e-07 0.102297)
(6.82428e-07 -4.40103e-07 0.102297)
(-6.80419e-07 -4.65016e-07 0.102297)
(4.3297e-05 4.33297e-05 0.102254)
(4.14654e-05 4.14461e-05 0.102252)
(-4.33234e-05 -4.32957e-05 0.102254)
(7.02338e-07 4.65974e-07 0.102297)
(-7.06694e-07 4.76156e-07 0.102297)
(6.99854e-07 4.56687e-07 0.102297)
(-7.00619e-07 4.72689e-07 0.102297)
(-4.14676e-05 4.14285e-05 0.102252)
(4.33247e-05 -4.33e-05 0.102254)
(4.51139e-07 6.88939e-07 0.102297)
(4.64694e-07 -7.03483e-07 0.102297)
(4.44673e-07 6.83434e-07 0.102297)
(4.60609e-07 -6.9827e-07 0.102297)
(-4.79776e-07 -6.95192e-07 0.102297)
(-4.47073e-07 6.80544e-07 0.102297)
(-4.71887e-07 -6.90887e-07 0.102297)
(4.14338e-05 -4.14832e-05 0.102252)
(-4.32958e-05 4.33289e-05 0.102254)
(-6.84665e-07 -4.6679e-07 0.102297)
(6.82409e-07 -4.39602e-07 0.102297)
(-6.78625e-07 -4.64274e-07 0.102297)
(4.32995e-05 4.33285e-05 0.102254)
(4.14642e-05 4.14441e-05 0.102252)
(-4.3325e-05 -4.32974e-05 0.102254)
(7.01655e-07 4.64524e-07 0.102297)
(-7.01618e-07 4.73759e-07 0.102297)
(6.98421e-07 4.53889e-07 0.102297)
(-7.00202e-07 4.71499e-07 0.102297)
(-4.14631e-05 4.14249e-05 0.102252)
(4.33244e-05 -4.32995e-05 0.102254)
(4.50006e-07 6.87262e-07 0.102297)
(4.63603e-07 -7.01311e-07 0.102297)
(4.42813e-07 6.81633e-07 0.102297)
(4.60623e-07 -6.98784e-07 0.102297)
(-4.73551e-07 -6.91781e-07 0.102297)
(-4.46882e-07 6.80905e-07 0.102297)
(-4.70076e-07 -6.8912e-07 0.102297)
(4.14323e-05 -4.14815e-05 0.102252)
(-4.32953e-05 4.33285e-05 0.102254)
(-6.7934e-07 -4.64423e-07 0.102297)
(6.83e-07 -4.38656e-07 0.102297)
(-6.75943e-07 -4.59799e-07 0.102297)
(4.33022e-05 4.33308e-05 0.102254)
(4.14636e-05 4.14431e-05 0.102252)
(-4.33239e-05 -4.32962e-05 0.102254)
(7.01887e-07 4.63371e-07 0.102297)
(-7.03834e-07 4.73924e-07 0.102297)
(6.99511e-07 4.54592e-07 0.102297)
(-7.00135e-07 4.70685e-07 0.102297)
(-4.1465e-05 4.14265e-05 0.102252)
(4.33246e-05 -4.33002e-05 0.102254)
(4.50212e-07 6.87021e-07 0.102297)
(4.64571e-07 -7.03416e-07 0.102297)
(4.44207e-07 6.82554e-07 0.102297)
(4.6019e-07 -6.987e-07 0.102297)
(-4.75239e-07 -6.92685e-07 0.102297)
(-4.47201e-07 6.80164e-07 0.102297)
(-4.7143e-07 -6.90938e-07 0.102297)
(4.14336e-05 -4.14831e-05 0.102252)
(-4.32958e-05 4.33286e-05 0.102254)
(-6.79587e-07 -4.65749e-07 0.102297)
(6.82833e-07 -4.38836e-07 0.102297)
(-6.78281e-07 -4.6141e-07 0.102297)
(4.32998e-05 4.33286e-05 0.102254)
(4.14634e-05 4.14433e-05 0.102252)
(-4.33246e-05 -4.32961e-05 0.102254)
(7.00598e-07 4.61741e-07 0.102297)
(-7.015e-07 4.70895e-07 0.102297)
(6.99549e-07 4.55227e-07 0.102297)
(-6.99281e-07 4.70911e-07 0.102297)
(-4.14635e-05 4.14249e-05 0.102252)
(4.33259e-05 -4.33008e-05 0.102254)
(4.48697e-07 6.85824e-07 0.102297)
(4.61582e-07 -7.00905e-07 0.102297)
(4.44151e-07 6.829e-07 0.102297)
(4.60205e-07 -6.9762e-07 0.102297)
(-4.72588e-07 -6.91503e-07 0.102297)
(-4.46555e-07 6.79976e-07 0.102297)
(-4.70859e-07 -6.89809e-07 0.102297)
(4.14321e-05 -4.14817e-05 0.102252)
(-4.32967e-05 4.33303e-05 0.102254)
(-6.79043e-07 -4.63594e-07 0.102297)
(6.82223e-07 -4.37677e-07 0.102297)
(-6.77522e-07 -4.60326e-07 0.102297)
(4.33012e-05 4.33302e-05 0.102254)
(4.14643e-05 4.14449e-05 0.102252)
(-4.33232e-05 -4.32959e-05 0.102254)
(7.03395e-07 4.6565e-07 0.102297)
(-7.03431e-07 4.74959e-07 0.102297)
(6.99801e-07 4.55598e-07 0.102297)
(-7.01523e-07 4.72865e-07 0.102297)
(-4.14638e-05 4.14257e-05 0.102252)
(4.33227e-05 -4.32982e-05 0.102254)
(4.52888e-07 6.88871e-07 0.102297)
(4.66311e-07 -7.03421e-07 0.102297)
(4.45392e-07 6.83049e-07 0.102297)
(4.62005e-07 -6.99714e-07 0.102297)
(-4.7698e-07 -6.93989e-07 0.102297)
(-4.49005e-07 6.8162e-07 0.102297)
(-4.72377e-07 -6.90788e-07 0.102297)
(4.14329e-05 -4.14821e-05 0.102252)
(-4.32942e-05 4.3327e-05 0.102254)
(-6.81509e-07 -4.67507e-07 0.102297)
(6.8381e-07 -4.40499e-07 0.102297)
(-6.77978e-07 -4.62211e-07 0.102297)
(4.32991e-05 4.33285e-05 0.102254)
(4.14641e-05 4.14436e-05 0.102252)
(-4.3322e-05 -4.32946e-05 0.102254)
(7.01393e-07 4.62961e-07 0.102297)
(-7.03475e-07 4.73688e-07 0.102297)
(7.01266e-07 4.57442e-07 0.102297)
(-7.02425e-07 4.74363e-07 0.102297)
(-4.14656e-05 4.14269e-05 0.102252)
(4.33222e-05 -4.32976e-05 0.102254)
(4.49476e-07 6.86795e-07 0.102297)
(4.63329e-07 -7.02691e-07 0.102297)
(4.45603e-07 6.84555e-07 0.102297)
(4.61929e-07 -7.00582e-07 0.102297)
(-4.73719e-07 -6.91555e-07 0.102297)
(-4.49689e-07 6.83004e-07 0.102297)
(-4.73993e-07 -6.9343e-07 0.102297)
(4.14333e-05 -4.14834e-05 0.102252)
(-4.32935e-05 4.33266e-05 0.102254)
(-6.78968e-07 -4.64794e-07 0.102297)
(6.85128e-07 -4.41863e-07 0.102297)
(-6.81113e-07 -4.65363e-07 0.102297)
(4.32976e-05 4.33259e-05 0.102254)
(4.14667e-05 4.14461e-05 0.102252)
(-4.33218e-05 -4.32942e-05 0.102254)
(7.04541e-07 4.67715e-07 0.102297)
(-7.05261e-07 4.77189e-07 0.102297)
(7.0112e-07 4.58038e-07 0.102297)
(-7.01486e-07 4.74129e-07 0.102297)
(-4.1467e-05 4.14284e-05 0.102252)
(4.3323e-05 -4.32983e-05 0.102254)
(4.53098e-07 6.89825e-07 0.102297)
(4.66068e-07 -7.0475e-07 0.102297)
(4.46168e-07 6.84427e-07 0.102297)
(4.62075e-07 -6.996e-07 0.102297)
(-4.77979e-07 -6.96133e-07 0.102297)
(-4.48687e-07 6.82085e-07 0.102297)
(-4.72947e-07 -6.92167e-07 0.102297)
(4.14354e-05 -4.1485e-05 0.102252)
(-4.32942e-05 4.33276e-05 0.102254)
(-6.83828e-07 -4.70526e-07 0.102297)
(6.84154e-07 -4.4101e-07 0.102297)
(-6.79449e-07 -4.63882e-07 0.102297)
(4.32982e-05 4.33274e-05 0.102254)
(4.14663e-05 4.14457e-05 0.102252)
(-4.3321e-05 -4.32937e-05 0.102254)
(7.03938e-07 4.66958e-07 0.102297)
(-7.04624e-07 4.7621e-07 0.102297)
(7.01833e-07 4.58566e-07 0.102297)
(-7.02331e-07 4.74898e-07 0.102297)
(-4.14659e-05 4.14276e-05 0.102252)
(4.33222e-05 -4.32975e-05 0.102254)
(4.53033e-07 6.89231e-07 0.102297)
(4.65985e-07 -7.04136e-07 0.102297)
(4.47553e-07 6.84906e-07 0.102297)
(4.63284e-07 -7.00605e-07 0.102297)
(-4.76257e-07 -6.94098e-07 0.102297)
(-4.49693e-07 6.82388e-07 0.102297)
(-4.73554e-07 -6.92283e-07 0.102297)
(4.14344e-05 -4.14837e-05 0.102252)
(-4.3293e-05 4.33264e-05 0.102254)
(-6.81353e-07 -4.68162e-07 0.102297)
(6.84842e-07 -4.42716e-07 0.102297)
(-6.79529e-07 -4.65079e-07 0.102297)
(4.32977e-05 4.33264e-05 0.102254)
(4.14666e-05 4.14459e-05 0.102252)
(-4.33249e-05 -4.32971e-05 0.102254)
(7.0349e-07 4.65903e-07 0.102297)
(-7.04544e-07 4.75937e-07 0.102297)
(6.9879e-07 4.53763e-07 0.102297)
(-6.99926e-07 4.70574e-07 0.102297)
(-4.14663e-05 4.1428e-05 0.102252)
(4.3325e-05 -4.33004e-05 0.102254)
(4.52219e-07 6.88778e-07 0.102297)
(4.65393e-07 -7.03902e-07 0.102297)
(4.41806e-07 6.8196e-07 0.102297)
(4.58334e-07 -6.97745e-07 0.102297)
(-4.76976e-07 -6.94567e-07 0.102297)
(-4.45885e-07 6.80094e-07 0.102297)
(-4.70336e-07 -6.90749e-07 0.102297)
(4.14348e-05 -4.14841e-05 0.102252)
(-4.32966e-05 4.33298e-05 0.102254)
(-6.8197e-07 -4.69453e-07 0.102297)
(6.81749e-07 -4.37632e-07 0.102297)
(-6.77915e-07 -4.61037e-07 0.102297)
(4.33005e-05 4.33291e-05 0.102254)
(4.14633e-05 4.14431e-05 0.102252)
(-4.33215e-05 -4.32938e-05 0.102254)
(7.01848e-07 4.63272e-07 0.102297)
(-7.0285e-07 4.73205e-07 0.102297)
(7.01589e-07 4.58569e-07 0.102297)
(-7.01823e-07 4.74706e-07 0.102297)
(-4.1464e-05 4.14253e-05 0.102252)
(4.33228e-05 -4.32981e-05 0.102254)
(4.49176e-07 6.86982e-07 0.102297)
(4.6272e-07 -7.02258e-07 0.102297)
(4.4763e-07 6.84621e-07 0.102297)
(4.63531e-07 -7.00713e-07 0.102297)
(-4.71976e-07 -6.9134e-07 0.102297)
(-4.50137e-07 6.82068e-07 0.102297)
(-4.73731e-07 -6.92185e-07 0.102297)
(4.14321e-05 -4.14816e-05 0.102252)
(-4.32934e-05 4.33263e-05 0.102254)
(-6.78575e-07 -4.64172e-07 0.102297)
(6.84562e-07 -4.42649e-07 0.102297)
(-6.7909e-07 -4.65142e-07 0.102297)
(4.32989e-05 4.33273e-05 0.102254)
(4.14661e-05 4.14459e-05 0.102252)
(-4.33282e-05 -4.33001e-05 0.102254)
(7.03198e-07 4.66118e-07 0.102297)
(-7.03987e-07 4.75288e-07 0.102297)
(6.96056e-07 4.51011e-07 0.102297)
(-6.96404e-07 4.66785e-07 0.102297)
(-4.14658e-05 4.14274e-05 0.102252)
(4.33289e-05 -4.33042e-05 0.102254)
(4.52755e-07 6.88476e-07 0.102297)
(4.65568e-07 -7.04265e-07 0.102297)
(4.39584e-07 6.79419e-07 0.102297)
(4.55128e-07 -6.94649e-07 0.102297)
(-4.77297e-07 -6.95037e-07 0.102297)
(-4.41586e-07 6.76662e-07 0.102297)
(-4.64766e-07 -6.86285e-07 0.102297)
(4.14346e-05 -4.14846e-05 0.102252)
(-4.33005e-05 4.33332e-05 0.102254)
(-6.81868e-07 -4.69904e-07 0.102297)
(6.78403e-07 -4.33651e-07 0.102297)
(-6.72887e-07 -4.5601e-07 0.102297)
(4.33053e-05 4.33338e-05 0.102254)
(4.146e-05 4.14401e-05 0.102252)
(-4.33206e-05 -4.32932e-05 0.102254)
(6.99113e-07 4.59775e-07 0.102297)
(-6.99556e-07 4.69682e-07 0.102297)
(7.0242e-07 4.58461e-07 0.102297)
(-7.03026e-07 4.7439e-07 0.102297)
(-4.146e-05 4.14217e-05 0.102252)
(4.33212e-05 -4.32967e-05 0.102254)
(4.46148e-07 6.84346e-07 0.102297)
(4.59461e-07 -6.9932e-07 0.102297)
(4.47058e-07 6.85438e-07 0.102297)
(4.62743e-07 -7.01028e-07 0.102297)
(-4.68498e-07 -6.88615e-07 0.102297)
(-4.51735e-07 6.8345e-07 0.102297)
(-4.76381e-07 -6.95408e-07 0.102297)
(4.14279e-05 -4.14778e-05 0.102252)
(-4.32925e-05 4.33256e-05 0.102254)
(-6.75498e-07 -4.60729e-07 0.102297)
(6.85334e-07 -4.43517e-07 0.102297)
(-6.82102e-07 -4.66458e-07 0.102297)
(4.32947e-05 4.33237e-05 0.102254)
(4.14677e-05 4.14472e-05 0.102252)
(-4.33255e-05 -4.32981e-05 0.102254)
(7.05329e-07 4.67664e-07 0.102297)
(-7.06e-07 4.76437e-07 0.102297)
(6.98269e-07 4.5385e-07 0.102297)
(-6.99211e-07 4.70311e-07 0.102297)
(-4.14681e-05 4.14294e-05 0.102252)
(4.33263e-05 -4.33019e-05 0.102254)
(4.53876e-07 6.90435e-07 0.102297)
(4.66232e-07 -7.05974e-07 0.102297)
(4.42922e-07 6.81493e-07 0.102297)
(4.58726e-07 -6.96328e-07 0.102297)
(-4.79136e-07 -6.96909e-07 0.102297)
(-4.45555e-07 6.79112e-07 0.102297)
(-4.68496e-07 -6.88327e-07 0.102297)
(4.14361e-05 -4.14858e-05 0.102252)
(-4.3298e-05 4.33308e-05 0.102254)
(-6.83917e-07 -4.70672e-07 0.102297)
(6.809e-07 -4.36837e-07 0.102297)
(-6.7535e-07 -4.59302e-07 0.102297)
(4.33035e-05 4.33318e-05 0.102254)
(4.1462e-05 4.14416e-05 0.102252)
(-4.33198e-05 -4.32921e-05 0.102254)
(7.00433e-07 4.61934e-07 0.102297)
(-7.0131e-07 4.71535e-07 0.102297)
(7.03235e-07 4.5932e-07 0.102297)
(-7.03552e-07 4.75742e-07 0.102297)
(-4.14623e-05 4.14236e-05 0.102252)
(4.33204e-05 -4.32962e-05 0.102254)
(4.48636e-07 6.85619e-07 0.102297)
(4.61385e-07 -7.01472e-07 0.102297)
(4.48763e-07 6.85948e-07 0.102297)
(4.65051e-07 -7.00401e-07 0.102297)
(-4.7155e-07 -6.90438e-07 0.102297)
(-4.51376e-07 6.83941e-07 0.102297)
(-4.75771e-07 -6.9503e-07 0.102297)
(4.14299e-05 -4.14797e-05 0.102252)
(-4.32909e-05 4.33232e-05 0.102254)
(-6.77496e-07 -4.63599e-07 0.102297)
(6.86298e-07 -4.4363e-07 0.102297)
(-6.81724e-07 -4.66985e-07 0.102297)
(4.32955e-05 4.33241e-05 0.102254)
(4.14691e-05 4.14488e-05 0.102252)
(-4.3321e-05 -4.3293e-05 0.102254)
(7.06845e-07 4.69792e-07 0.102297)
(-7.07726e-07 4.79717e-07 0.102297)
(7.02386e-07 4.58998e-07 0.102297)
(-7.02359e-07 4.7488e-07 0.102297)
(-4.14695e-05 4.14304e-05 0.102252)
(4.33226e-05 -4.32978e-05 0.102254)
(4.56456e-07 6.91477e-07 0.102297)
(4.70541e-07 -7.10415e-07 0.102297)
(4.4783e-07 6.85586e-07 0.102297)
(4.64074e-07 -6.98502e-07 0.102297)
(-4.79597e-07 -6.97575e-07 0.102297)
(-4.49769e-07 6.82593e-07 0.102297)
(-4.73813e-07 -6.92742e-07 0.102297)
(4.14381e-05 -4.14875e-05 0.102252)
(-4.32932e-05 4.33237e-05 0.102254)
(-6.84318e-07 -4.72112e-07 0.102297)
(6.84896e-07 -4.4267e-07 0.102297)
(-6.79557e-07 -4.65085e-07 0.102297)
(4.32981e-05 4.33266e-05 0.102254)
(4.1466e-05 4.14461e-05 0.102252)
(-4.3325e-05 -4.32974e-05 0.102254)
(7.03316e-07 4.65626e-07 0.102297)
(-7.02929e-07 4.74053e-07 0.102297)
(6.98384e-07 4.54533e-07 0.102297)
(-7.00924e-07 4.72039e-07 0.102297)
(-4.14651e-05 4.14267e-05 0.102252)
(4.3324e-05 -4.32995e-05 0.102254)
(4.51574e-07 6.88511e-07 0.102297)
(4.64174e-07 -7.0574e-07 0.102297)
(4.42897e-07 6.81782e-07 0.102297)
(4.59893e-07 -6.96188e-07 0.102297)
(-4.75566e-07 -6.93497e-07 0.102297)
(-4.48107e-07 6.80625e-07 0.102297)
(-4.72786e-07 -6.91879e-07 0.102297)
(4.14327e-05 -4.14824e-05 0.102252)
(-4.32966e-05 4.3327e-05 0.102254)
(-6.80449e-07 -4.67842e-07 0.102297)
(6.81761e-07 -4.39424e-07 0.102297)
(-6.78896e-07 -4.6318e-07 0.102297)
(4.32988e-05 4.33278e-05 0.102254)
(4.14633e-05 4.14428e-05 0.102252)
(-4.33158e-05 -4.32877e-05 0.102254)
(7.00747e-07 4.63695e-07 0.102297)
(-7.03648e-07 4.74443e-07 0.102297)
(7.07382e-07 4.63764e-07 0.102297)
(-7.0654e-07 4.79145e-07 0.102297)
(-4.14653e-05 4.14265e-05 0.102252)
(4.33181e-05 -4.32941e-05 0.102254)
(4.49142e-07 6.861e-07 0.102297)
(4.63521e-07 -7.05337e-07 0.102297)
(4.53192e-07 6.90498e-07 0.102297)
(4.68873e-07 -7.04276e-07 0.102297)
(-4.75962e-07 -6.93818e-07 0.102297)
(-4.53978e-07 6.86367e-07 0.102297)
(-4.77638e-07 -6.96593e-07 0.102297)
(4.14311e-05 -4.14808e-05 0.102252)
(-4.32889e-05 4.33185e-05 0.102254)
(-6.81016e-07 -4.67702e-07 0.102297)
(6.89463e-07 -4.47784e-07 0.102297)
(-6.83197e-07 -4.69368e-07 0.102297)
(4.32946e-05 4.33234e-05 0.102254)
(4.14638e-05 4.14441e-05 0.102252)
(-4.32868e-05 -4.32586e-05 0.102254)
(7.00396e-07 4.62177e-07 0.102297)
(-6.98471e-07 4.69975e-07 0.102297)
(7.02175e-07 4.5353e-07 0.102297)
(-7.0314e-07 4.703e-07 0.102297)
(-4.14618e-05 4.14226e-05 0.102252)
(4.32877e-05 -4.32632e-05 0.102254)
(4.4854e-07 6.85373e-07 0.102297)
(4.61196e-07 -7.0167e-07 0.102297)
(4.42762e-07 6.85986e-07 0.102297)
(4.59662e-07 -7.01159e-07 0.102297)
(-4.68755e-07 -6.87443e-07 0.102297)
(-4.44465e-07 6.82363e-07 0.102297)
(-4.68801e-07 -6.9259e-07 0.102297)
(4.14297e-05 -4.14796e-05 0.102252)
(-4.32596e-05 4.32879e-05 0.102254)
(-6.74665e-07 -4.62228e-07 0.102297)
(6.8438e-07 -4.36988e-07 0.102297)
(-6.79346e-07 -4.60084e-07 0.102297)
(4.3264e-05 4.32929e-05 0.102254)
(4.13896e-05 4.137e-05 0.102252)
(-4.28627e-05 -4.2834e-05 0.102254)
(6.96301e-07 4.73567e-07 0.102297)
(-6.96906e-07 4.81347e-07 0.102297)
(6.16838e-07 2.88963e-07 0.102297)
(-6.21108e-07 3.06914e-07 0.102297)
(-4.13902e-05 4.13504e-05 0.102252)
(4.28622e-05 -4.28377e-05 0.102254)
(4.58269e-07 6.81967e-07 0.102297)
(4.70729e-07 -6.96675e-07 0.102297)
(2.76298e-07 6.01784e-07 0.102297)
(2.95997e-07 -6.17654e-07 0.102297)
(-4.81328e-07 -6.86263e-07 0.102297)
(-2.82653e-07 5.99222e-07 0.102297)
(-3.10583e-07 -6.12181e-07 0.102297)
(4.13561e-05 -4.14055e-05 0.102252)
(-4.2836e-05 4.28645e-05 0.102254)
(-6.74032e-07 -4.74672e-07 0.102297)
(5.99425e-07 -2.75556e-07 0.102297)
(-5.98688e-07 -2.96403e-07 0.102297)
(4.28372e-05 4.28656e-05 0.102254)
(4.07401e-05 4.0721e-05 0.102252)
(-4.2254e-05 -4.22282e-05 0.102254)
(8.43556e-07 7.30567e-07 0.102297)
(-8.43938e-07 7.36497e-07 0.102297)
(1.93963e-07 -2.75429e-07 0.102297)
(-1.97309e-07 -2.61879e-07 0.102297)
(-4.07411e-05 4.07031e-05 0.102252)
(4.22597e-05 -4.22307e-05 0.102254)
(7.15499e-07 8.28886e-07 0.102297)
(7.26275e-07 -8.44656e-07 0.102297)
(-2.90448e-07 1.79953e-07 0.102297)
(-2.6802e-07 -1.94495e-07 0.102297)
(-7.37798e-07 -8.35015e-07 0.102297)
(2.865e-07 1.7716e-07 0.102297)
(2.66661e-07 -1.91482e-07 0.102297)
(4.07089e-05 -4.07567e-05 0.102252)
(-4.22295e-05 4.22636e-05 0.102254)
(-8.23431e-07 -7.32628e-07 0.102297)
(1.75977e-07 2.92832e-07 0.102297)
(-1.78238e-07 2.85476e-07 0.102297)
(4.22358e-05 4.22615e-05 0.102254)
(4.0688e-05 4.06757e-05 0.102252)
(-4.04603e-05 -4.0428e-05 0.102255)
(1.39941e-06 1.53664e-06 0.102297)
(-1.39986e-06 1.5426e-06 0.102297)
(-1.03899e-06 -1.91462e-06 0.102298)
(1.0316e-06 -1.91287e-06 0.102298)
(-4.06891e-05 4.06512e-05 0.102252)
(4.04699e-05 -4.04326e-05 0.102255)
(1.52833e-06 1.38969e-06 0.102297)
(1.53402e-06 -1.39761e-06 0.102297)
(-1.94074e-06 -1.04717e-06 0.102298)
(-1.91306e-06 1.04547e-06 0.102298)
(-1.53559e-06 -1.38808e-06 0.102297)
(1.93727e-06 -1.03937e-06 0.102298)
(1.91963e-06 1.03194e-06 0.102298)
(4.06619e-05 -4.07061e-05 0.102252)
(-4.04326e-05 4.04707e-05 0.102255)
(-1.38011e-06 -1.52745e-06 0.102297)
(-1.05319e-06 1.94073e-06 0.102298)
(1.04609e-06 1.93792e-06 0.102298)
(4.04345e-05 4.04673e-05 0.102255)
(3.76996e-05 3.76893e-05 0.102252)
(-3.54015e-05 -3.53525e-05 0.102256)
(2.86581e-06 3.53381e-06 0.102295)
(-2.86671e-06 3.55617e-06 0.102295)
(-4.44512e-06 -5.65611e-06 0.102303)
(4.42139e-06 -5.64825e-06 0.102303)
(-3.76993e-05 3.76847e-05 0.102252)
(3.53716e-05 -3.53594e-05 0.102256)
(3.51402e-06 2.8553e-06 0.102295)
(3.53291e-06 -2.85508e-06 0.102295)
(-5.68753e-06 -4.42547e-06 0.102303)
(-5.67471e-06 4.42982e-06 0.102303)
(-3.54518e-06 -2.8459e-06 0.102295)
(5.66201e-06 -4.4087e-06 0.102303)
(5.65885e-06 4.43664e-06 0.102303)
(3.76851e-05 -3.7716e-05 0.102252)
(-3.53786e-05 3.53747e-05 0.102256)
(-2.8469e-06 -3.52919e-06 0.102295)
(-4.43505e-06 5.67579e-06 0.102303)
(4.42478e-06 5.67288e-06 0.102303)
(3.53571e-05 3.53842e-05 0.102256)
(2.84814e-05 2.85365e-05 0.102252)
(-3.96234e-05 -3.94419e-05 0.10224)
(4.5797e-06 4.69056e-06 0.102289)
(-4.61631e-06 4.70524e-06 0.102289)
(-3.41046e-05 -4.93987e-05 0.102291)
(3.41e-05 -4.94282e-05 0.102291)
(-2.85201e-05 2.85372e-05 0.102252)
(3.96185e-05 -3.94696e-05 0.10224)
(4.63696e-06 4.62667e-06 0.102289)
(4.65623e-06 -4.58824e-06 0.102289)
(-4.95776e-05 -3.40043e-05 0.102291)
(-4.95335e-05 3.41074e-05 0.102291)
(-4.68072e-06 -4.57839e-06 0.102289)
(4.95629e-05 -3.40108e-05 0.102291)
(4.95162e-05 3.41153e-05 0.102291)
(2.84822e-05 -2.8533e-05 0.102252)
(-3.95655e-05 3.96024e-05 0.10224)
(-4.59683e-06 -4.64809e-06 0.102289)
(-3.40824e-05 4.95444e-05 0.102291)
(3.4096e-05 4.95832e-05 0.102291)
(3.95606e-05 3.96185e-05 0.10224)
(-4.74689e-05 -4.72905e-05 0.102219)
(-3.53089e-05 -3.96115e-05 0.102248)
(3.52989e-05 -3.96403e-05 0.102248)
(4.7458e-05 -4.73089e-05 0.102219)
(-3.98015e-05 -3.51969e-05 0.102248)
(-3.9754e-05 3.52956e-05 0.102248)
(4.69814e-05 -4.68616e-05 0.102276)
(-4.69552e-05 4.69859e-05 0.102276)
(4.69783e-05 4.70039e-05 0.102276)
(3.9752e-05 3.53105e-05 0.102248)
(-4.74091e-05 4.74454e-05 0.102219)
(3.53044e-05 3.98062e-05 0.102248)
(-5.59102e-07 -6.43067e-07 0.102327)
(6.07015e-07 -5.93282e-07 0.102327)
(-6.00052e-07 5.90957e-07 0.102327)
(6.12202e-07 5.76846e-07 0.102327)
(5.58835e-08 -8.48831e-06 0.100726)
(6.43179e-07 6.01679e-06 0.0948357)
(-7.75538e-09 8.34856e-06 0.100719)
(-1.17782e-06 -6.25785e-06 0.0948476)
(-1.68676e-06 2.47773e-06 0.0836817)
(1.80669e-06 -2.62777e-06 0.0836946)
(-8.55088e-06 4.35965e-08 0.100725)
(5.94205e-06 6.13288e-07 0.0948353)
(8.4083e-06 -3.18034e-08 0.100719)
(-6.23725e-06 -1.14365e-06 0.0948474)
(6.26723e-07 -6.08311e-07 0.102327)
(-6.05344e-07 6.06397e-07 0.102327)
(6.19346e-07 5.96179e-07 0.102327)
(-6.55367e-07 -6.68365e-07 0.102327)
(6.56923e-07 -6.57489e-07 0.102327)
(-6.56651e-07 6.50911e-07 0.102327)
(6.52624e-07 6.53102e-07 0.102327)
(1.56379e-05 4.47828e-08 0.10199)
(-1.46892e-05 3.77889e-06 0.100986)
(-5.17013e-07 -1.71455e-07 0.102319)
(-4.18412e-07 6.78928e-07 0.102297)
(-1.54634e-05 -4.93278e-08 0.101987)
(1.42451e-05 -4.06969e-06 0.100997)
(-5.06495e-07 -1.73872e-07 0.102319)
(2.36606e-06 -1.66148e-06 0.0836791)
(-2.47677e-06 1.68057e-06 0.0836946)
(5.72787e-08 1.55931e-05 0.10199)
(-1.4467e-07 -5.23349e-07 0.102319)
(3.82915e-06 -1.47725e-05 0.100986)
(6.81308e-07 -4.16082e-07 0.102297)
(-3.9824e-08 -1.5507e-05 0.101987)
(-1.44305e-07 -5.05291e-07 0.102319)
(-4.06479e-06 1.42701e-05 0.100997)
(-4.75349e-06 -5.11145e-06 0.099103)
(-5.08789e-06 -4.75564e-06 0.0991024)
(4.32783e-05 4.32965e-05 0.102254)
(4.55187e-06 4.92656e-06 0.0991147)
(4.93015e-06 4.53609e-06 0.0991141)
(-4.05343e-08 -8.61418e-06 0.100726)
(6.93191e-07 5.86806e-06 0.0948371)
(-5.57623e-08 8.28603e-06 0.100718)
(-1.23666e-06 -6.43964e-06 0.0948493)
(-1.53484e-06 2.23727e-06 0.0836841)
(1.70394e-06 -2.54244e-06 0.0836982)
(-8.69418e-06 1.21345e-09 0.100725)
(5.82553e-06 6.839e-07 0.0948366)
(8.33593e-06 -1.94511e-08 0.100719)
(-6.45029e-06 -1.20693e-06 0.0948491)
(6.43756e-07 -6.56911e-07 0.102327)
(-6.64566e-07 6.53946e-07 0.102327)
(6.40103e-07 6.54164e-07 0.102327)
(-5.89186e-07 -5.80392e-07 0.102327)
(5.42726e-07 -5.56655e-07 0.102327)
(-5.90551e-07 5.82001e-07 0.102327)
(5.38616e-07 5.58541e-07 0.102327)
(1.56581e-05 2.82383e-08 0.101989)