/*--------------------------------*- C++ -*----------------------------------*\
| =========                 |                                                 |
| \\      /  F ield         | OpenFOAM: The Open Source CFD Toolbox           |
|  \\    /   O peration     | Version:  v1912                                 |
|   \\  /    A nd           | Website:  www.openfoam.com                      |
|    \\/     M anipulation  |                                                 |
\*---------------------------------------------------------------------------*/
FoamFile
{
    version     2.0;
    format      ascii;
    class       volScalarField;
    location    "100";
    object      epsilon;
}
// * * * * * * * * * * * * * * * * * * * * * * * * * * * * * * * * * * * * * //

dimensions      [0 2 -3 0 0 0 0];


internalField   nonuniform List<scalar> 
57062
(
1.21167e-07
2.23728e-07
2.23766e-07
3.51287e-07
1.21171e-07
2.23774e-07
2.23811e-07
3.51301e-07
1.21176e-07
2.2381e-07
2.23851e-07
3.51334e-07
1.21182e-07
2.23837e-07
2.23884e-07
3.51371e-07
1.21189e-07
2.2386e-07
2.23913e-07
3.5141e-07
1.21196e-07
2.2388e-07
2.23936e-07
3.5145e-07
1.21202e-07
2.23899e-07
2.23953e-07
3.51488e-07
1.21208e-07
2.23913e-07
2.23971e-07
3.51528e-07
1.21215e-07
2.23933e-07
2.23991e-07
3.51566e-07
1.21223e-07
2.23959e-07
2.24013e-07
3.51603e-07
1.21229e-07
2.23989e-07
2.24027e-07
3.5163e-07
1.21233e-07
2.23995e-07
2.24038e-07
3.51646e-07
1.21235e-07
2.24001e-07
2.24046e-07
3.51672e-07
1.21234e-07
2.24015e-07
2.24054e-07
3.51695e-07
1.21229e-07
2.24017e-07
2.24049e-07
3.51709e-07
1.21223e-07
2.24014e-07
2.24049e-07
3.51733e-07
1.21219e-07
2.24008e-07
2.24046e-07
3.51742e-07
1.21215e-07
2.24009e-07
2.24048e-07
3.51749e-07
1.21208e-07
2.24007e-07
2.24041e-07
3.51751e-07
1.21195e-07
2.23996e-07
2.24036e-07
3.5175e-07
1.21183e-07
2.23979e-07
2.24025e-07
3.51714e-07
1.21139e-07
2.23922e-07
2.23981e-07
3.5163e-07
1.21132e-07
2.23877e-07
2.23933e-07
3.51546e-07
1.21132e-07
2.23843e-07
2.23896e-07
3.51544e-07
1.21133e-07
2.23821e-07
2.23871e-07
3.51482e-07
1.21134e-07
2.23795e-07
2.23845e-07
3.51446e-07
1.21134e-07
2.23754e-07
2.23803e-07
3.51424e-07
1.2113e-07
2.23681e-07
2.23728e-07
3.51396e-07
1.211e-07
2.2364e-07
2.23685e-07
3.51271e-07
1.18346e-07
2.09964e-07
2.09978e-07
3.31216e-07
3.50187e-07
2.2379e-07
2.23844e-07
3.50127e-07
2.23769e-07
2.23823e-07
2.23715e-07
2.23792e-07
3.50173e-07
2.23758e-07
2.23763e-07
3.50137e-07
3.51196e-07
3.50119e-07
2.23797e-07
2.23851e-07
2.23836e-07
2.23893e-07
3.51183e-07
3.50114e-07
2.23776e-07
2.23831e-07
2.23818e-07
2.23877e-07
2.23801e-07
2.23764e-07
2.23845e-07
3.51185e-07
3.50104e-07
2.23771e-07
2.238e-07
2.23815e-07
3.50149e-07
3.51191e-07
3.50172e-07
2.23844e-07
2.239e-07
2.23879e-07
2.23932e-07
3.51186e-07
3.50137e-07
2.23826e-07
2.23885e-07
2.23863e-07
2.23923e-07
2.23853e-07
2.23803e-07
2.23888e-07
3.51175e-07
3.50152e-07
2.23824e-07
2.23843e-07
2.23859e-07
3.50178e-07
3.51243e-07
3.50221e-07
2.23885e-07
2.23938e-07
2.23915e-07
2.23962e-07
3.51213e-07
3.50167e-07
2.2387e-07
2.2393e-07
2.23899e-07
2.23962e-07
2.23894e-07
2.23833e-07
2.23921e-07
3.51223e-07
3.50202e-07
2.23865e-07
2.23878e-07
2.23891e-07
3.50215e-07
3.51294e-07
3.50273e-07
2.2392e-07
2.23966e-07
2.23945e-07
2.23985e-07
3.51244e-07
3.50205e-07
2.23904e-07
2.23968e-07
2.23927e-07
2.23993e-07
2.23926e-07
2.23855e-07
2.23945e-07
3.51275e-07
3.50256e-07
2.23896e-07
2.23908e-07
2.23915e-07
3.50252e-07
3.51345e-07
3.50318e-07
2.23949e-07
2.23989e-07
2.23968e-07
2.24006e-07
3.51282e-07
3.50247e-07
2.23931e-07
2.23998e-07
2.23948e-07
2.24017e-07
2.23949e-07
2.23875e-07
2.23962e-07
3.51328e-07
3.50303e-07
2.23919e-07
2.23932e-07
2.23932e-07
3.5029e-07
3.51391e-07
3.50357e-07
2.23971e-07
2.24001e-07
2.23985e-07
2.24017e-07
3.51324e-07
3.50287e-07
2.23951e-07
2.24021e-07
2.23965e-07
2.24036e-07
2.23966e-07
2.23895e-07
2.23976e-07
3.51377e-07
3.50344e-07
2.23935e-07
2.23949e-07
2.23946e-07
3.50327e-07
3.51431e-07
3.50397e-07
2.2398e-07
2.24021e-07
2.23998e-07
2.24038e-07
3.51365e-07
3.50326e-07
2.23969e-07
2.2404e-07
2.23984e-07
2.24056e-07
2.23981e-07
2.23907e-07
2.24001e-07
3.51419e-07
3.50386e-07
2.23951e-07
2.23964e-07
2.23971e-07
3.50367e-07
3.51472e-07
3.50441e-07
2.24003e-07
2.2404e-07
2.24026e-07
2.24066e-07
3.51405e-07
3.50367e-07
2.23989e-07
2.2406e-07
2.24011e-07
2.24078e-07
2.24005e-07
2.23927e-07
2.24027e-07
3.51461e-07
3.50426e-07
2.23976e-07
2.23987e-07
2.23998e-07
3.50404e-07
3.51515e-07
3.50484e-07
2.24029e-07
2.2407e-07
2.24047e-07
2.24087e-07
3.51446e-07
3.50416e-07
2.24014e-07
2.24082e-07
2.2403e-07
2.241e-07
2.24022e-07
2.23954e-07
2.24037e-07
3.51501e-07
3.50472e-07
2.24002e-07
2.24008e-07
2.24016e-07
3.50441e-07
3.51559e-07
3.50505e-07
2.24049e-07
2.24092e-07
2.24059e-07
2.2411e-07
3.51495e-07
3.50452e-07
2.24024e-07
2.24104e-07
2.24034e-07
2.24122e-07
2.24044e-07
2.23983e-07
2.2407e-07
3.51549e-07
3.50505e-07
2.24022e-07
2.24022e-07
2.24044e-07
3.50476e-07
3.51581e-07
3.50516e-07
2.24052e-07
2.24114e-07
2.24065e-07
2.24127e-07
3.51535e-07
3.50475e-07
2.24026e-07
2.24117e-07
2.24042e-07
2.24125e-07
2.24065e-07
2.23991e-07
2.2408e-07
3.51582e-07
3.50525e-07
2.24039e-07
2.24032e-07
2.2405e-07
3.50501e-07
3.51594e-07
3.5054e-07
2.24059e-07
2.24121e-07
2.24073e-07
2.24142e-07
3.51548e-07
3.50522e-07
2.24036e-07
2.24114e-07
2.24048e-07
2.24131e-07
2.24076e-07
2.23997e-07
2.2409e-07
3.51603e-07
3.50556e-07
2.24043e-07
2.24041e-07
2.24063e-07
3.50536e-07
3.51612e-07
3.50559e-07
2.24065e-07
2.24136e-07
2.24086e-07
2.24149e-07
3.516e-07
3.50516e-07
2.24041e-07
2.24126e-07
2.24065e-07
2.24143e-07
2.24082e-07
2.24007e-07
2.24097e-07
3.51627e-07
3.50573e-07
2.24058e-07
2.24051e-07
2.24071e-07
3.50563e-07
3.51633e-07
3.50594e-07
2.24082e-07
2.24143e-07
2.24094e-07
2.2416e-07
3.5161e-07
3.50527e-07
2.24061e-07
2.24138e-07
2.24067e-07
2.24145e-07
2.24093e-07
2.24014e-07
2.24107e-07
3.51649e-07
3.5059e-07
2.24065e-07
2.24047e-07
2.24078e-07
3.50587e-07
3.51662e-07
3.50615e-07
2.24085e-07
2.24152e-07
2.2409e-07
2.24157e-07
3.51604e-07
3.50572e-07
2.24056e-07
2.24134e-07
2.24064e-07
2.2414e-07
2.24098e-07
2.24011e-07
2.24103e-07
3.51656e-07
3.50614e-07
2.24069e-07
2.24045e-07
2.24074e-07
3.50615e-07
3.51683e-07
3.50608e-07
2.24079e-07
2.24146e-07
2.24086e-07
2.24153e-07
3.51631e-07
3.50594e-07
2.24053e-07
2.24128e-07
2.24062e-07
2.24139e-07
2.24092e-07
2.24006e-07
2.24099e-07
3.51679e-07
3.50616e-07
2.24063e-07
2.24044e-07
2.2407e-07
3.50621e-07
3.51682e-07
3.50603e-07
2.24075e-07
2.24142e-07
2.24087e-07
2.24147e-07
3.51654e-07
3.50586e-07
2.24051e-07
2.24133e-07
2.24063e-07
2.24141e-07
2.24088e-07
2.24005e-07
2.24094e-07
3.5169e-07
3.5061e-07
2.24059e-07
2.24046e-07
2.24066e-07
3.50622e-07
3.51675e-07
3.50611e-07
2.24082e-07
2.24137e-07
2.24086e-07
2.24144e-07
3.51661e-07
3.50575e-07
2.24058e-07
2.2413e-07
2.24063e-07
2.24137e-07
2.24084e-07
2.24005e-07
2.24092e-07
3.51693e-07
3.50603e-07
2.24055e-07
2.24038e-07
2.24063e-07
3.50616e-07
3.51687e-07
3.50613e-07
2.24076e-07
2.24134e-07
2.24081e-07
2.24142e-07
3.51658e-07
3.50566e-07
2.24054e-07
2.24127e-07
2.24062e-07
2.24134e-07
2.2409e-07
2.23993e-07
2.24094e-07
3.51689e-07
3.50605e-07
2.24059e-07
2.24033e-07
2.24064e-07
3.5061e-07
3.51689e-07
3.50593e-07
2.24081e-07
2.24142e-07
2.24076e-07
2.24133e-07
3.51648e-07
3.50546e-07
2.24062e-07
2.24134e-07
2.24057e-07
2.24131e-07
2.24094e-07
2.23981e-07
2.24082e-07
3.51689e-07
3.50586e-07
2.24064e-07
2.24024e-07
2.24054e-07
3.50583e-07
3.51666e-07
3.50538e-07
2.24072e-07
2.24127e-07
2.2402e-07
2.24067e-07
3.51623e-07
3.50462e-07
2.24054e-07
2.24127e-07
2.24001e-07
2.24074e-07
2.24074e-07
2.2393e-07
2.2401e-07
3.51672e-07
3.50516e-07
2.24048e-07
2.23988e-07
2.23984e-07
3.50504e-07
3.51609e-07
3.50432e-07
2.24011e-07
2.24059e-07
2.23968e-07
2.24018e-07
3.51543e-07
3.5036e-07
2.23991e-07
2.24064e-07
2.23948e-07
2.24018e-07
2.24001e-07
2.23879e-07
2.23959e-07
3.51596e-07
3.50412e-07
2.23975e-07
2.23935e-07
2.23931e-07
3.50408e-07
3.5151e-07
3.50418e-07
2.23965e-07
2.24015e-07
2.23938e-07
2.23989e-07
3.51451e-07
3.50351e-07
2.23945e-07
2.24015e-07
2.23917e-07
2.23986e-07
2.23956e-07
2.2384e-07
2.23931e-07
3.51489e-07
3.50406e-07
2.23928e-07
2.23894e-07
2.23902e-07
3.50392e-07
3.515e-07
3.50384e-07
2.23938e-07
2.23989e-07
2.23913e-07
2.23966e-07
3.51442e-07
3.50309e-07
2.23917e-07
2.23985e-07
2.23893e-07
2.23962e-07
2.23932e-07
2.23812e-07
2.2391e-07
3.51485e-07
3.50375e-07
2.23902e-07
2.23863e-07
2.23879e-07
3.50339e-07
3.51458e-07
3.50377e-07
2.23913e-07
2.23966e-07
2.23883e-07
2.23937e-07
3.51396e-07
3.50296e-07
2.23893e-07
2.23962e-07
2.23863e-07
2.23933e-07
2.23909e-07
2.23785e-07
2.23883e-07
3.51446e-07
3.50369e-07
2.23879e-07
2.23835e-07
2.23852e-07
3.5033e-07
3.51437e-07
3.50355e-07
2.23884e-07
2.23937e-07
2.23836e-07
2.23892e-07
3.51364e-07
3.50287e-07
2.23863e-07
2.23934e-07
2.23817e-07
2.23889e-07
2.23883e-07
2.23742e-07
2.23841e-07
3.51427e-07
3.50351e-07
2.23852e-07
2.23791e-07
2.2381e-07
3.5034e-07
3.51405e-07
3.50325e-07
2.23837e-07
2.23893e-07
2.23759e-07
2.23813e-07
3.5134e-07
3.50261e-07
2.23816e-07
2.23889e-07
2.2374e-07
2.23813e-07
2.23842e-07
2.23668e-07
2.23766e-07
3.51403e-07
3.50328e-07
2.23811e-07
2.23716e-07
2.23732e-07
3.50346e-07
3.51356e-07
3.50233e-07
2.23764e-07
2.23816e-07
2.23515e-07
2.23564e-07
3.51294e-07
3.50182e-07
2.23745e-07
2.23817e-07
2.2349e-07
2.23564e-07
2.23769e-07
2.2343e-07
2.23527e-07
3.51355e-07
3.50248e-07
2.23736e-07
2.23471e-07
2.23483e-07
3.50265e-07
3.51215e-07
3.41766e-07
2.23723e-07
2.23771e-07
2.16115e-07
2.16162e-07
3.51158e-07
3.4174e-07
2.23697e-07
2.23776e-07
2.16108e-07
2.16146e-07
2.23738e-07
2.16068e-07
2.16122e-07
3.51221e-07
3.41774e-07
2.2369e-07
2.16086e-07
2.16099e-07
3.41796e-07
3.31182e-07
2.09994e-07
2.10035e-07
3.31161e-07
2.09993e-07
2.1002e-07
1.18351e-07
1.18347e-07
1.18348e-07
2.1e-07
3.3119e-07
2.09985e-07
1.21166e-07
1.21169e-07
1.21184e-07
1.21174e-07
3.52328e-06
8.82969e-06
3.52362e-06
8.82973e-06
1.84121e-05
1.84139e-05
3.52365e-06
8.83156e-06
3.52393e-06
8.83159e-06
1.2117e-07
1.21184e-07
1.21176e-07
1.2117e-07
1.21173e-07
1.21185e-07
1.21177e-07
1.10256e-06
2.728e-06
1.48661e-07
2.23736e-07
1.10332e-06
2.72712e-06
1.48664e-07
1.84131e-05
1.84149e-05
1.10264e-06
1.48666e-07
2.7282e-06
2.23773e-07
1.1034e-06
1.48669e-07
2.72732e-06
5.04369e-06
5.04553e-06
3.50123e-07
5.04338e-06
5.04523e-06
3.52333e-06
8.82937e-06
3.52357e-06
8.82946e-06
1.84112e-05
1.84131e-05
3.5236e-06
8.83123e-06
3.52382e-06
8.83131e-06
1.21175e-07
1.21188e-07
1.2118e-07
1.21175e-07
1.21179e-07
1.2119e-07
1.21183e-07
1.10224e-06
2.72789e-06
1.48675e-07
2.23781e-07
1.10289e-06
2.72711e-06
1.48678e-07
1.84121e-05
1.8414e-05
1.10238e-06
1.48679e-07
2.72803e-06
2.23818e-07
1.10301e-06
1.48682e-07
2.72729e-06
5.04357e-06
5.0454e-06
3.50144e-07
5.04332e-06
5.04518e-06
3.52354e-06
8.82917e-06
3.52378e-06
8.82931e-06
1.84106e-05
1.84126e-05
3.52375e-06
8.83103e-06
3.52392e-06
8.83116e-06
1.21181e-07
1.21193e-07
1.21185e-07
1.21181e-07
1.21186e-07
1.21196e-07
1.21191e-07
1.10214e-06
2.72798e-06
1.48687e-07
2.23815e-07
1.10271e-06
2.72722e-06
1.4869e-07
1.84115e-05
1.84137e-05
1.10227e-06
1.48693e-07
2.72813e-06
2.23857e-07
1.10287e-06
1.48696e-07
2.72743e-06
5.04363e-06
5.04549e-06
3.50172e-07
5.04348e-06
5.04534e-06
3.5239e-06
8.82913e-06
3.52399e-06
8.82933e-06
1.84105e-05
1.84126e-05
3.52403e-06
8.83097e-06
3.52417e-06
8.83115e-06
1.21188e-07
1.21198e-07
1.21192e-07
1.21188e-07
1.21192e-07
1.21201e-07
1.21197e-07
1.10218e-06
2.7281e-06
1.48697e-07
2.23841e-07
1.10271e-06
2.72736e-06
1.48699e-07
1.84114e-05
1.84136e-05
1.1023e-06
1.48706e-07
2.72831e-06
2.2389e-07
1.10285e-06
1.48708e-07
2.72763e-06
5.04391e-06
5.04571e-06
3.50211e-07
5.04378e-06
5.0456e-06
3.5242e-06
8.82923e-06
3.52443e-06
8.82946e-06
1.84106e-05
1.84128e-05
3.52442e-06
8.83104e-06
3.5245e-06
8.83127e-06
1.21194e-07
1.21204e-07
1.21199e-07
1.21194e-07
1.21198e-07
1.21207e-07
1.21204e-07
1.1023e-06
2.72828e-06
1.48705e-07
2.23863e-07
1.1028e-06
2.72754e-06
1.48707e-07
1.84115e-05
1.84139e-05
1.10243e-06
1.48716e-07
2.7285e-06
2.23917e-07
1.10294e-06
1.48719e-07
2.72781e-06
5.0442e-06
5.04601e-06
3.50253e-07
5.04406e-06
5.0459e-06
3.52453e-06
8.8294e-06
3.52471e-06
8.82964e-06
1.84109e-05
1.84132e-05
3.52474e-06
8.83121e-06
3.5249e-06
8.83145e-06
1.212e-07
1.2121e-07
1.21206e-07
1.212e-07
1.21204e-07
1.21213e-07
1.2121e-07
1.10249e-06
2.72845e-06
1.48718e-07
2.23882e-07
1.10297e-06
2.72771e-06
1.48722e-07
1.84119e-05
1.84143e-05
1.10257e-06
1.48727e-07
2.72867e-06
2.23938e-07
1.10309e-06
1.48729e-07
2.72797e-06
5.04447e-06
5.04631e-06
3.50301e-07
5.04432e-06
5.04619e-06
3.52484e-06
8.82959e-06
3.52506e-06
8.82982e-06
1.84113e-05
1.84135e-05
3.52493e-06
8.83141e-06
3.52512e-06
8.83165e-06
1.21207e-07
1.21215e-07
1.21212e-07
1.21207e-07
1.21211e-07
1.21219e-07
1.21217e-07
1.10266e-06
2.72859e-06
1.48734e-07
2.23895e-07
1.10316e-06
2.72784e-06
1.48737e-07
1.84122e-05
1.84145e-05
1.10269e-06
1.48737e-07
2.72881e-06
2.23949e-07
1.1032e-06
1.4874e-07
2.72809e-06
5.04467e-06
5.04652e-06
3.5035e-07
5.04446e-06
5.04633e-06
3.52503e-06
8.82978e-06
3.5253e-06
8.83003e-06
1.84116e-05
1.84138e-05
3.52505e-06
8.8316e-06
3.52525e-06
8.83183e-06
1.21213e-07
1.21221e-07
1.21219e-07
1.21214e-07
1.21218e-07
1.21225e-07
1.21224e-07
1.10278e-06
2.72869e-06
1.48747e-07
2.23917e-07
1.1033e-06
2.72791e-06
1.4875e-07
1.84124e-05
1.84148e-05
1.10283e-06
1.48752e-07
2.72891e-06
2.23976e-07
1.10334e-06
1.48755e-07
2.72819e-06
5.04476e-06
5.04663e-06
3.50397e-07
5.04453e-06
5.04643e-06
3.52497e-06
8.82998e-06
3.52527e-06
8.83021e-06
1.84119e-05
1.84141e-05
3.52515e-06
8.83176e-06
3.52535e-06
8.83198e-06
1.2122e-07
1.21228e-07
1.21226e-07
1.21221e-07
1.21225e-07
1.21232e-07
1.21231e-07
1.10284e-06
2.72874e-06
1.48759e-07
2.23938e-07
1.10338e-06
2.72795e-06
1.48762e-07
1.84127e-05
1.8415e-05
1.10293e-06
1.48765e-07
2.72898e-06
2.23994e-07
1.10346e-06
1.48767e-07
2.72824e-06
5.04479e-06
5.04667e-06
3.50446e-07
5.04455e-06
5.04645e-06
3.52501e-06
8.83011e-06
3.52529e-06
8.83032e-06
1.84121e-05
1.84143e-05
3.52528e-06
8.83187e-06
3.52548e-06
8.83207e-06
1.21227e-07
1.21235e-07
1.21233e-07
1.21228e-07
1.21232e-07
1.21239e-07
1.21239e-07
1.10295e-06
2.72878e-06
1.48771e-07
2.23962e-07
1.10347e-06
2.728e-06
1.48774e-07
1.84129e-05
1.84152e-05
1.103e-06
1.48775e-07
2.72901e-06
2.24015e-07
1.10355e-06
1.48777e-07
2.72826e-06
5.04478e-06
5.04667e-06
3.505e-07
5.04454e-06
5.04643e-06
3.52494e-06
8.83019e-06
3.52526e-06
8.83038e-06
1.84123e-05
1.84145e-05
3.52516e-06
8.83194e-06
3.52544e-06
8.83213e-06
1.21235e-07
1.21241e-07
1.2124e-07
1.21232e-07
1.21239e-07
1.21245e-07
1.21243e-07
1.103e-06
2.72882e-06
1.48785e-07
2.23984e-07
1.10354e-06
2.72802e-06
1.48787e-07
1.8413e-05
1.84152e-05
1.10302e-06
1.48784e-07
2.72902e-06
2.24022e-07
1.10357e-06
1.48786e-07
2.72826e-06
5.04475e-06
5.04663e-06
3.50534e-07
5.04448e-06
5.04639e-06
3.52487e-06
8.83022e-06
3.52519e-06
8.8304e-06
1.84125e-05
1.84147e-05
3.52512e-06
8.83197e-06
3.52537e-06
8.83215e-06
1.2124e-07
1.21247e-07
1.21246e-07
1.21235e-07
1.21243e-07
1.21249e-07
1.21248e-07
1.10302e-06
2.72881e-06
1.48795e-07
2.2399e-07
1.10357e-06
2.728e-06
1.48797e-07
1.84131e-05
1.84155e-05
1.10303e-06
1.48793e-07
2.729e-06
2.24033e-07
1.1036e-06
1.48794e-07
2.72823e-06
5.04468e-06
5.04659e-06
3.50554e-07
5.04442e-06
5.04635e-06
3.52478e-06
8.83023e-06
3.5251e-06
8.83041e-06
1.84127e-05
1.8415e-05
3.52517e-06
8.83199e-06
3.52539e-06
8.83216e-06
1.21245e-07
1.21251e-07
1.21251e-07
1.21235e-07
1.21246e-07
1.2125e-07
1.21251e-07
1.10303e-06
2.72878e-06
1.48801e-07
2.23995e-07
1.10359e-06
2.72795e-06
1.488e-07
1.84135e-05
1.84157e-05
1.10302e-06
1.48798e-07
2.72896e-06
2.2404e-07
1.10359e-06
1.48798e-07
2.72818e-06
5.04463e-06
5.04652e-06
3.50571e-07
5.04437e-06
5.04626e-06
3.52467e-06
8.83023e-06
3.52503e-06
8.83041e-06
1.84129e-05
1.84151e-05
3.52503e-06
8.83199e-06
3.52533e-06
8.83216e-06
1.21247e-07
1.21249e-07
1.21253e-07
1.2123e-07
1.21239e-07
1.2124e-07
1.21248e-07
1.10303e-06
2.72871e-06
1.48804e-07
2.2401e-07
1.10359e-06
2.72788e-06
1.48804e-07
1.84134e-05
1.84158e-05
1.10298e-06
1.488e-07
2.7289e-06
2.24046e-07
1.10356e-06
1.488e-07
2.72811e-06
5.04456e-06
5.0464e-06
3.506e-07
5.04427e-06
5.04612e-06
3.52453e-06
8.83023e-06
3.5249e-06
8.83041e-06
1.84129e-05
1.84151e-05
3.52493e-06
8.83199e-06
3.52523e-06
8.83216e-06
1.21238e-07
1.21239e-07
1.21246e-07
1.21225e-07
1.21232e-07
1.21232e-07
1.21238e-07
1.10301e-06
2.72864e-06
1.48807e-07
2.24006e-07
1.10358e-06
2.72782e-06
1.48805e-07
1.84136e-05
1.84159e-05
1.10292e-06
1.488e-07
2.72883e-06
2.24038e-07
1.10351e-06
1.48797e-07
2.72805e-06
5.04448e-06
5.04627e-06
3.50604e-07
5.04422e-06
5.04603e-06
3.5244e-06
8.83022e-06
3.52478e-06
8.8304e-06
1.84129e-05
1.84151e-05
3.52478e-06
8.83197e-06
3.52509e-06
8.83214e-06
1.21231e-07
1.21231e-07
1.21236e-07
1.21219e-07
1.21223e-07
1.21225e-07
1.21229e-07
1.103e-06
2.72858e-06
1.48804e-07
2.24002e-07
1.10357e-06
2.72775e-06
1.488e-07
1.84136e-05
1.84158e-05
1.1029e-06
1.48796e-07
2.72877e-06
2.24042e-07
1.10347e-06
1.48792e-07
2.72799e-06
5.04444e-06
5.04624e-06
3.50598e-07
5.04417e-06
5.04599e-06
3.52428e-06
8.8302e-06
3.52466e-06
8.8304e-06
1.8413e-05
1.84152e-05
3.52465e-06
8.83196e-06
3.52496e-06
8.83214e-06
1.21222e-07
1.21224e-07
1.21228e-07
1.21216e-07
1.21217e-07
1.21221e-07
1.21222e-07
1.10298e-06
2.72852e-06
1.48797e-07
2.23996e-07
1.10355e-06
2.72771e-06
1.48793e-07
1.84135e-05
1.84158e-05
1.10287e-06
1.48791e-07
2.72872e-06
2.24035e-07
1.10345e-06
1.48787e-07
2.72795e-06
5.04438e-06
5.04622e-06
3.50588e-07
5.04412e-06
5.046e-06
3.52424e-06
8.83023e-06
3.52458e-06
8.83044e-06
1.84129e-05
1.84152e-05
3.5246e-06
8.83198e-06
3.52487e-06
8.83226e-06
1.21216e-07
1.21221e-07
1.21221e-07
1.21211e-07
1.21211e-07
1.21214e-07
1.21215e-07
1.10297e-06
2.72851e-06
1.48791e-07
2.24002e-07
1.10353e-06
2.72771e-06
1.48788e-07
1.84133e-05
1.84157e-05
1.10282e-06
1.48786e-07
2.72871e-06
2.24036e-07
1.1034e-06
1.48781e-07
2.72795e-06
5.04441e-06
5.04628e-06
3.50576e-07
5.04421e-06
5.04607e-06
3.52438e-06
8.83027e-06
3.52464e-06
8.83051e-06
1.84128e-05
1.84151e-05
3.52478e-06
8.83213e-06
3.52498e-06
8.83238e-06
1.2121e-07
1.21213e-07
1.21214e-07
1.21197e-07
1.21196e-07
1.212e-07
1.21201e-07
1.10304e-06
2.72855e-06
1.48786e-07
2.23992e-07
1.10357e-06
2.72778e-06
1.4878e-07
1.84133e-05
1.84158e-05
1.10286e-06
1.48779e-07
2.72874e-06
2.24028e-07
1.1034e-06
1.48774e-07
2.72801e-06
5.04463e-06
5.04641e-06
3.50576e-07
5.04444e-06
5.04622e-06
3.52456e-06
8.83031e-06
3.52485e-06
8.83055e-06
1.84127e-05
1.84153e-05
3.52498e-06
8.83218e-06
3.52519e-06
8.83244e-06
1.21194e-07
1.21199e-07
1.21199e-07
1.21187e-07
1.21183e-07
1.21189e-07
1.21189e-07
1.10311e-06
2.72866e-06
1.48774e-07
2.2398e-07
1.10366e-06
2.72788e-06
1.48767e-07
1.84132e-05
1.84159e-05
1.10293e-06
1.48768e-07
2.72886e-06
2.24021e-07
1.10348e-06
1.48762e-07
2.72813e-06
5.04483e-06
5.04664e-06
3.50574e-07
5.04447e-06
5.04635e-06
3.52458e-06
8.83028e-06
3.52497e-06
8.83059e-06
1.84126e-05
1.84155e-05
3.525e-06
8.83219e-06
3.52533e-06
8.8325e-06
1.21177e-07
1.21187e-07
1.21183e-07
1.21146e-07
1.21138e-07
1.21152e-07
1.21142e-07
1.10312e-06
2.72873e-06
1.48752e-07
2.23954e-07
1.1037e-06
2.72789e-06
1.48732e-07
1.84131e-05
1.84161e-05
1.10296e-06
1.48752e-07
2.72895e-06
2.24005e-07
1.10354e-06
1.48737e-07
2.72815e-06
5.04474e-06
5.04663e-06
3.50508e-07
5.04423e-06
5.04615e-06
3.52453e-06
8.83032e-06
3.52496e-06
8.83077e-06
1.84124e-05
1.84159e-05
3.52492e-06
8.83224e-06
3.52529e-06
8.8327e-06
1.21135e-07
1.21146e-07
1.21137e-07
1.21132e-07
1.21127e-07
1.21136e-07
1.21129e-07
1.10308e-06
2.72871e-06
1.48702e-07
2.23894e-07
1.10368e-06
2.7278e-06
1.48689e-07
1.84127e-05
1.84162e-05
1.1029e-06
1.48706e-07
2.72893e-06
2.23951e-07
1.10352e-06
1.4869e-07
2.72807e-06
5.04451e-06
5.04641e-06
3.50404e-07
5.04388e-06
5.04578e-06
3.5243e-06
8.83049e-06
3.52484e-06
8.83118e-06
1.84122e-05
1.84166e-05
3.52478e-06
8.83242e-06
3.52522e-06
8.83311e-06
1.21129e-07
1.21138e-07
1.21131e-07
1.21131e-07
1.21127e-07
1.21135e-07
1.21129e-07
1.10299e-06
2.72863e-06
1.48681e-07
2.23854e-07
1.10362e-06
2.72763e-06
1.48674e-07
1.84123e-05
1.84168e-05
1.10279e-06
1.4868e-07
2.72887e-06
2.23909e-07
1.10343e-06
1.48672e-07
2.72792e-06
5.04437e-06
5.04622e-06
3.50364e-07
5.04357e-06
5.04545e-06
3.52414e-06
8.83086e-06
3.5247e-06
8.83194e-06
1.84117e-05
1.84177e-05
3.52457e-06
8.83278e-06
3.52506e-06
8.83384e-06
1.21131e-07
1.21139e-07
1.21133e-07
1.21132e-07
1.2113e-07
1.21138e-07
1.21132e-07
1.10288e-06
2.72856e-06
1.48674e-07
2.23818e-07
1.10354e-06
2.72739e-06
1.48668e-07
1.84119e-05
1.8418e-05
1.10268e-06
1.4867e-07
2.72882e-06
2.2387e-07
1.10334e-06
1.48664e-07
2.72769e-06
5.04436e-06
5.04624e-06
3.50397e-07
5.0434e-06
5.0453e-06
3.52399e-06
8.83139e-06
3.52457e-06
8.83304e-06
1.8411e-05
1.84193e-05
3.52438e-06
8.83327e-06
3.52492e-06
8.83494e-06
1.21135e-07
1.21143e-07
1.21136e-07
1.21132e-07
1.21132e-07
1.2114e-07
1.21134e-07
1.10274e-06
2.72854e-06
1.4867e-07
2.23793e-07
1.10346e-06
2.72704e-06
1.48662e-07
1.84114e-05
1.84199e-05
1.10256e-06
1.48665e-07
2.7288e-06
2.23843e-07
1.10326e-06
1.48658e-07
2.72733e-06
5.04502e-06
5.04691e-06
3.50405e-07
5.04367e-06
5.04559e-06
3.52394e-06
8.83183e-06
3.52447e-06
8.83421e-06
1.84095e-05
1.84213e-05
3.5243e-06
8.83378e-06
3.5248e-06
8.83622e-06
1.21137e-07
1.21145e-07
1.21139e-07
1.21132e-07
1.21132e-07
1.2114e-07
1.21136e-07
1.1026e-06
2.72856e-06
1.48663e-07
2.23759e-07
1.1034e-06
2.72655e-06
1.48653e-07
1.84102e-05
1.84223e-05
1.10245e-06
1.48659e-07
2.7288e-06
2.23808e-07
1.10324e-06
1.48649e-07
2.72688e-06
5.04612e-06
5.04802e-06
3.50392e-07
5.04394e-06
5.04586e-06
3.5242e-06
8.83119e-06
3.52454e-06
8.83476e-06
1.84063e-05
1.84233e-05
3.52459e-06
8.83317e-06
3.52488e-06
8.8367e-06
1.21136e-07
1.21145e-07
1.21141e-07
1.21129e-07
1.21129e-07
1.21137e-07
1.21134e-07
1.10244e-06
2.72945e-06
1.48651e-07
2.23704e-07
1.10343e-06
2.72667e-06
1.48638e-07
1.84074e-05
1.84247e-05
1.10231e-06
1.48647e-07
2.72977e-06
2.23752e-07
1.1033e-06
1.48633e-07
2.727e-06
5.04755e-06
5.04944e-06
3.50355e-07
5.04413e-06
5.04603e-06
3.52465e-06
8.82868e-06
3.52482e-06
8.83466e-06
1.84006e-05
1.84248e-05
3.52495e-06
8.83049e-06
3.52511e-06
8.83643e-06
1.21133e-07
1.2114e-07
1.21138e-07
1.21092e-07
1.21092e-07
1.21099e-07
1.21096e-07
1.10213e-06
2.73184e-06
1.4863e-07
2.23599e-07
1.1036e-06
2.7271e-06
1.48614e-07
1.84021e-05
1.84264e-05
1.10202e-06
1.48627e-07
2.73212e-06
2.23643e-07
1.10349e-06
1.48611e-07
2.72737e-06
5.0496e-06
5.05147e-06
3.50305e-07
5.04458e-06
5.04645e-06
3.51985e-06
8.82252e-06
3.52407e-06
8.82957e-06
1.83904e-05
1.84168e-05
3.52014e-06
8.8243e-06
3.52433e-06
8.83121e-06
1.21103e-07
1.21109e-07
1.21107e-07
1.20371e-07
1.20375e-07
1.20376e-07
1.20374e-07
1.09791e-06
2.73575e-06
1.48442e-07
2.22464e-07
1.10336e-06
2.72204e-06
1.48666e-07
1.83923e-05
1.84186e-05
1.09781e-06
1.48439e-07
2.73595e-06
2.22499e-07
1.10327e-06
1.4866e-07
2.72215e-06
5.05248e-06
5.05434e-06
3.48847e-07
5.0413e-06
5.04305e-06
2.67894e-06
7.97581e-06
3.45385e-06
4.89851e-06
1.6216e-05
7.92001e-06
2.67915e-06
7.97704e-06
3.45412e-06
4.89938e-06
9.55029e-08
1.02658e-07
1.02656e-07
1.23479e-07
9.57091e-08
1.03863e-07
1.03861e-07
9.99836e-07
2.60368e-06
1.43943e-07
1.98737e-07
1.06634e-06
2.64033e-06
1.37541e-07
1.62171e-05
7.9199e-06
9.99768e-07
1.43936e-07
2.60372e-06
1.98745e-07
1.06625e-06
1.37534e-07
2.64028e-06
4.9365e-06
4.9384e-06
3.0537e-07
4.43413e-06
4.43514e-06
1.84134e-05
1.84153e-05
5.04358e-06
5.04527e-06
8.8299e-06
3.52334e-06
8.83104e-06
8.83094e-06
3.52348e-06
2.72743e-06
1.48651e-07
1.10261e-06
2.23833e-07
2.7281e-06
1.48672e-07
2.72918e-06
1.10277e-06
1.84144e-05
1.84128e-05
3.51308e-07
5.04509e-06
5.04318e-06
5.04548e-06
5.04381e-06
1.84118e-05
1.84102e-05
8.83178e-06
3.5237e-06
2.7278e-06
1.48666e-07
1.10291e-06
8.83109e-06
3.52367e-06
1.48674e-07
2.72774e-06
1.10293e-06
1.10378e-06
2.23707e-07
2.72724e-06
1.48657e-07
2.72824e-06
1.48655e-07
1.10284e-06
3.52397e-06
8.83068e-06
8.8306e-06
3.52372e-06
1.10379e-06
2.23781e-07
1.48664e-07
2.72774e-06
1.48662e-07
2.7288e-06
1.10286e-06
3.52392e-06
8.8306e-06
8.83051e-06
3.52368e-06
1.84155e-05
5.04525e-06
5.04351e-06
1.84141e-05
1.48664e-07
2.72751e-06
1.10291e-06
2.23751e-07
1.4866e-07
2.72818e-06
2.72925e-06
1.10294e-06
8.83085e-06
3.52356e-06
8.83163e-06
8.83153e-06
3.5237e-06
3.51288e-07
5.04347e-06
5.04534e-06
5.04395e-06
5.04576e-06
1.84135e-05
1.84119e-05
1.84149e-05
1.84134e-05
1.84112e-05
1.84127e-05
1.8413e-05
1.84146e-05
5.04367e-06
5.04537e-06
3.50057e-07
5.04337e-06
5.04509e-06
1.84122e-05
1.84105e-05
1.84141e-05
1.84124e-05
3.51133e-07
5.04321e-06
5.04498e-06
5.04345e-06
5.04518e-06
3.52343e-06
8.83078e-06
3.52365e-06
8.83085e-06
1.10238e-06
2.72801e-06
1.48653e-07
2.23807e-07
1.10298e-06
2.72733e-06
1.48657e-07
1.10254e-06
2.7286e-06
1.48675e-07
2.23863e-07
1.10315e-06
2.72779e-06
1.48678e-07
3.52341e-06
8.82958e-06
8.82948e-06
3.52325e-06
3.52356e-06
8.83069e-06
8.8306e-06
3.5234e-06
1.10273e-06
2.23823e-07
2.72728e-06
1.48664e-07
2.72789e-06
1.4866e-07
1.10219e-06
1.1029e-06
2.2388e-07
2.72764e-06
1.48684e-07
2.72834e-06
1.48681e-07
1.10235e-06
5.04519e-06
5.04339e-06
3.50057e-07
5.04497e-06
5.04304e-06
1.84095e-05
1.84113e-05
1.84134e-05
1.84117e-05
3.51132e-07
5.04491e-06
5.04298e-06
5.04509e-06
5.04327e-06
1.84109e-05
1.8409e-05
1.10269e-06
2.72843e-06
1.48667e-07
2.23788e-07
1.10328e-06
2.72778e-06
1.48672e-07
3.52366e-06
8.83084e-06
3.52379e-06
8.83091e-06
1.10271e-06
1.48677e-07
2.72839e-06
2.23844e-07
1.10329e-06
1.4868e-07
2.72774e-06
3.52372e-06
8.83143e-06
8.83134e-06
3.52358e-06
1.10303e-06
2.23805e-07
2.72781e-06
1.4868e-07
2.7284e-06
1.48675e-07
1.10249e-06
3.52372e-06
8.83078e-06
8.83067e-06
3.52359e-06
1.10306e-06
2.23862e-07
1.48687e-07
2.72778e-06
1.48684e-07
2.72838e-06
1.10252e-06
3.52373e-06
8.83043e-06
3.52386e-06
8.83052e-06
1.10259e-06
1.48668e-07
2.72825e-06
2.23815e-07
1.10319e-06
1.48671e-07
2.72747e-06
3.52368e-06
8.83035e-06
3.52383e-06
8.83043e-06
1.10291e-06
2.23753e-07
2.7271e-06
1.48672e-07
2.72774e-06
1.48669e-07
1.10237e-06
3.52387e-06
8.8304e-06
8.83028e-06
3.52371e-06
1.10294e-06
2.23831e-07
1.48679e-07
2.72735e-06
1.48676e-07
2.72802e-06
1.1024e-06
3.52382e-06
8.83029e-06
8.83019e-06
3.52364e-06
5.04548e-06
5.0436e-06
3.50052e-07
5.04515e-06
5.04327e-06
1.84118e-05
1.84134e-05
1.84144e-05
1.84126e-05
3.51126e-07
5.04506e-06
5.04312e-06
5.04537e-06
5.04335e-06
1.84128e-05
1.84111e-05
1.10271e-06
1.48663e-07
2.72869e-06
2.23784e-07
1.1033e-06
1.48666e-07
2.72791e-06
3.52351e-06
8.8306e-06
3.52375e-06
8.83066e-06
3.52364e-06
8.83138e-06
3.52381e-06
8.83146e-06
1.10301e-06
2.23789e-07
1.48675e-07
2.72728e-06
1.48672e-07
2.72789e-06
1.10247e-06
1.10305e-06
2.23801e-07
1.48674e-07
2.7278e-06
1.4867e-07
2.72847e-06
1.10252e-06
3.52365e-06
8.83051e-06
8.83042e-06
3.52344e-06
3.52371e-06
8.83133e-06
8.83122e-06
3.52358e-06
1.84112e-05
1.8413e-05
1.84127e-05
1.84144e-05
3.51136e-07
5.04333e-06
5.04518e-06
5.04351e-06
5.04534e-06
1.84125e-05
1.84108e-05
1.8414e-05
1.84122e-05
1.841e-05
1.84117e-05
1.84119e-05
1.84137e-05
5.04331e-06
5.04509e-06
3.50096e-07
5.04312e-06
5.04491e-06
1.84114e-05
1.84096e-05
1.84134e-05
1.84115e-05
3.51177e-07
5.04311e-06
5.0449e-06
5.04323e-06
5.04502e-06
3.52353e-06
8.83043e-06
3.52356e-06
8.83053e-06
1.10208e-06
2.72787e-06
1.48667e-07
2.23854e-07
1.10255e-06
2.72729e-06
1.4867e-07
1.10224e-06
2.72821e-06
1.48687e-07
2.2391e-07
1.10272e-06
2.72757e-06
1.4869e-07
3.52351e-06
8.82936e-06
8.82922e-06
3.52343e-06
3.52369e-06
8.83041e-06
8.83029e-06
3.52357e-06
1.10246e-06
2.23869e-07
2.72734e-06
1.48676e-07
2.72789e-06
1.48673e-07
1.10203e-06
1.10262e-06
2.23924e-07
2.72756e-06
1.48695e-07
2.72815e-06
1.48693e-07
1.10217e-06
5.04502e-06
5.04321e-06
3.50074e-07
5.04486e-06
5.043e-06
1.84086e-05
1.84106e-05
1.84128e-05
1.84109e-05
3.51149e-07
5.04486e-06
5.04311e-06
5.04498e-06
5.04326e-06
1.84105e-05
1.84084e-05
1.10237e-06
2.72845e-06
1.48682e-07
2.23837e-07
1.10285e-06
2.72787e-06
1.48687e-07
3.52367e-06
8.83054e-06
3.52367e-06
8.83067e-06
1.10241e-06
1.4869e-07
2.72843e-06
2.23897e-07
1.10288e-06
1.48694e-07
2.72785e-06
3.52369e-06
8.83122e-06
8.83108e-06
3.52366e-06
1.10274e-06
2.23852e-07
2.72793e-06
1.48694e-07
2.7285e-06
1.48689e-07
1.10231e-06
3.52376e-06
8.8306e-06
8.83044e-06
3.5237e-06
1.10278e-06
2.23912e-07
1.487e-07
2.72793e-06
1.48697e-07
2.7285e-06
1.10235e-06
3.52374e-06
8.83016e-06
3.52386e-06
8.83029e-06
1.10227e-06
1.48682e-07
2.72793e-06
2.23863e-07
1.10275e-06
1.48685e-07
2.72732e-06
3.52366e-06
8.83006e-06
3.52379e-06
8.83017e-06
1.10261e-06
2.23795e-07
2.72717e-06
1.48684e-07
2.72775e-06
1.48681e-07
1.10216e-06
3.52388e-06
8.83022e-06
8.83007e-06
3.52371e-06
1.10263e-06
2.23877e-07
1.48691e-07
2.72733e-06
1.48688e-07
2.72791e-06
1.10219e-06
3.52381e-06
8.83009e-06
8.82995e-06
3.52365e-06
5.04529e-06
5.04322e-06
3.50089e-07
5.04503e-06
5.04305e-06
1.84106e-05
1.84124e-05
1.84138e-05
1.84118e-05
3.51166e-07
5.04508e-06
5.04309e-06
5.04527e-06
5.04318e-06
1.84121e-05
1.84102e-05
1.10241e-06
1.48677e-07
2.72838e-06
2.23834e-07
1.10287e-06
1.4868e-07
2.72776e-06
3.52357e-06
8.83027e-06
3.52363e-06
8.83037e-06
3.52371e-06
8.83109e-06
3.52367e-06
8.83121e-06
1.10276e-06
2.23833e-07
1.4869e-07
2.72735e-06
1.48687e-07
2.72789e-06
1.10231e-06
1.10277e-06
2.23849e-07
1.48686e-07
2.72779e-06
1.48683e-07
2.72836e-06
1.10234e-06
3.52373e-06
8.83029e-06
8.83014e-06
3.52351e-06
3.5238e-06
8.83113e-06
8.83098e-06
3.52374e-06
1.84104e-05
1.84122e-05
1.84118e-05
1.84137e-05
3.5116e-07
5.04337e-06
5.04524e-06
5.04347e-06
5.04532e-06
1.8412e-05
1.84101e-05
1.84135e-05
1.84116e-05
1.84094e-05
1.84113e-05
1.84112e-05
1.84132e-05
5.04325e-06
5.04503e-06
3.5015e-07
5.0432e-06
5.04498e-06
1.84113e-05
1.84093e-05
1.84132e-05
1.84111e-05
3.51229e-07
5.04334e-06
5.04514e-06
5.04336e-06
5.04514e-06
3.5237e-06
8.83018e-06
3.52373e-06
8.83033e-06
1.10201e-06
2.72794e-06
1.48679e-07
2.23894e-07
1.10241e-06
2.7274e-06
1.48683e-07
1.10215e-06
2.72816e-06
1.48697e-07
2.23945e-07
1.10255e-06
2.72759e-06