/*--------------------------------*- C++ -*----------------------------------*\
| =========                 |                                                 |
| \\      /  F ield         | OpenFOAM: The Open Source CFD Toolbox           |
|  \\    /   O peration     | Version:  v1912                                 |
|   \\  /    A nd           | Website:  www.openfoam.com                      |
|    \\/     M anipulation  |                                                 |
\*---------------------------------------------------------------------------*/
FoamFile
{
    version     2.0;
    format      ascii;
    class       volScalarField;
    location    "100";
    object      k;
}
// * * * * * * * * * * * * * * * * * * * * * * * * * * * * * * * * * * * * * //

dimensions      [0 2 -2 0 0 0 0];


internalField   nonuniform List<scalar> 
57062
(
1.40157e-05
1.57625e-05
1.57629e-05
1.79941e-05
1.4016e-05
1.57641e-05
1.57647e-05
1.79939e-05
1.40165e-05
1.57654e-05
1.57661e-05
1.79946e-05
1.40169e-05
1.57663e-05
1.57673e-05
1.79956e-05
1.40174e-05
1.5767e-05
1.57683e-05
1.79967e-05
1.40179e-05
1.57676e-05
1.5769e-05
1.79979e-05
1.40183e-05
1.57682e-05
1.57697e-05
1.79991e-05
1.40187e-05
1.57689e-05
1.57703e-05
1.80005e-05
1.40191e-05
1.57697e-05
1.5771e-05
1.80018e-05
1.40196e-05
1.57706e-05
1.57717e-05
1.8003e-05
1.40199e-05
1.57714e-05
1.57724e-05
1.80037e-05
1.40196e-05
1.57722e-05
1.5773e-05
1.8004e-05
1.40188e-05
1.57727e-05
1.57736e-05
1.80051e-05
1.40183e-05
1.57728e-05
1.57739e-05
1.8006e-05
1.40176e-05
1.5773e-05
1.57739e-05
1.80064e-05
1.40172e-05
1.57731e-05
1.57734e-05
1.80076e-05
1.40165e-05
1.57724e-05
1.57728e-05
1.80077e-05
1.40161e-05
1.57716e-05
1.57723e-05
1.80078e-05
1.40152e-05
1.5771e-05
1.57715e-05
1.80073e-05
1.40132e-05
1.57696e-05
1.57701e-05
1.80059e-05
1.40113e-05
1.57672e-05
1.57684e-05
1.80037e-05
1.40091e-05
1.57634e-05
1.57646e-05
1.79995e-05
1.40094e-05
1.57629e-05
1.57638e-05
1.79968e-05
1.40099e-05
1.57632e-05
1.57641e-05
1.79977e-05
1.40104e-05
1.57636e-05
1.57645e-05
1.79952e-05
1.40108e-05
1.57639e-05
1.57648e-05
1.79945e-05
1.4011e-05
1.57642e-05
1.5765e-05
1.79949e-05
1.40112e-05
1.57642e-05
1.5765e-05
1.79957e-05
1.40114e-05
1.57636e-05
1.57644e-05
1.7995e-05
1.39898e-05
1.54419e-05
1.5442e-05
1.76535e-05
1.79751e-05
1.57625e-05
1.57635e-05
1.79742e-05
1.57631e-05
1.57624e-05
1.5762e-05
1.57632e-05
1.79739e-05
1.57626e-05
1.57634e-05
1.79724e-05
1.79914e-05
1.79736e-05
1.57627e-05
1.57638e-05
1.57642e-05
1.57651e-05
1.79915e-05
1.79736e-05
1.57634e-05
1.57627e-05
1.57648e-05
1.57643e-05
1.57636e-05
1.57637e-05
1.5765e-05
1.79906e-05
1.79725e-05
1.57638e-05
1.57643e-05
1.57652e-05
1.79732e-05
1.79913e-05
1.79746e-05
1.57645e-05
1.57654e-05
1.57657e-05
1.57664e-05
1.79914e-05
1.79739e-05
1.57651e-05
1.57646e-05
1.57663e-05
1.57658e-05
1.57653e-05
1.57651e-05
1.57664e-05
1.79903e-05
1.79735e-05
1.57654e-05
1.57658e-05
1.57665e-05
1.7974e-05
1.79925e-05
1.79757e-05
1.57659e-05
1.57665e-05
1.5767e-05
1.57673e-05
1.79919e-05
1.79745e-05
1.57666e-05
1.5766e-05
1.57675e-05
1.57671e-05
1.57666e-05
1.57661e-05
1.57674e-05
1.79913e-05
1.79747e-05
1.57667e-05
1.5767e-05
1.57675e-05
1.7975e-05
1.79937e-05
1.79773e-05
1.57672e-05
1.57674e-05
1.57681e-05
1.5768e-05
1.79927e-05
1.79756e-05
1.57677e-05
1.57673e-05
1.57685e-05
1.57681e-05
1.57676e-05
1.57668e-05
1.57681e-05
1.79927e-05
1.79763e-05
1.57676e-05
1.57681e-05
1.57682e-05
1.79761e-05
1.79953e-05
1.79787e-05
1.57682e-05
1.57681e-05
1.57688e-05
1.57685e-05
1.79938e-05
1.79769e-05
1.57686e-05
1.57683e-05
1.57692e-05
1.57689e-05
1.57683e-05
1.57675e-05
1.57687e-05
1.79943e-05
1.79778e-05
1.57683e-05
1.57689e-05
1.57688e-05
1.79772e-05
1.79967e-05
1.79799e-05
1.57689e-05
1.57686e-05
1.57694e-05
1.57692e-05
1.7995e-05
1.79782e-05
1.57693e-05
1.5769e-05
1.57698e-05
1.57695e-05
1.57688e-05
1.57681e-05
1.57693e-05
1.79959e-05
1.7979e-05
1.57689e-05
1.57695e-05
1.57694e-05
1.79783e-05
1.79979e-05
1.79812e-05
1.57695e-05
1.57693e-05
1.577e-05
1.57699e-05
1.79964e-05
1.79795e-05
1.57699e-05
1.57696e-05
1.57705e-05
1.57702e-05
1.57695e-05
1.57687e-05
1.57701e-05
1.79971e-05
1.79803e-05
1.57695e-05
1.57701e-05
1.57702e-05
1.79795e-05
1.79993e-05
1.79827e-05
1.57702e-05
1.577e-05
1.57708e-05
1.57707e-05
1.79977e-05
1.79808e-05
1.57706e-05
1.57703e-05
1.57713e-05
1.57709e-05
1.57702e-05
1.57695e-05
1.57708e-05
1.79985e-05
1.79816e-05
1.57703e-05
1.57708e-05
1.5771e-05
1.79807e-05
1.80007e-05
1.79842e-05
1.5771e-05
1.57709e-05
1.57717e-05
1.57716e-05
1.79991e-05
1.79826e-05
1.57714e-05
1.57711e-05
1.57721e-05
1.57717e-05
1.5771e-05
1.57703e-05
1.57717e-05
1.79997e-05
1.79831e-05
1.57712e-05
1.57716e-05
1.57719e-05
1.79817e-05
1.80024e-05
1.79849e-05
1.57718e-05
1.57718e-05
1.57724e-05
1.57725e-05
1.80008e-05
1.79836e-05
1.57722e-05
1.57719e-05
1.57728e-05
1.57725e-05
1.57719e-05
1.57712e-05
1.57725e-05
1.80014e-05
1.79841e-05
1.57721e-05
1.57722e-05
1.57727e-05
1.79825e-05
1.80031e-05
1.79852e-05
1.57725e-05
1.57726e-05
1.5773e-05
1.57733e-05
1.80021e-05
1.79844e-05
1.57729e-05
1.57726e-05
1.57733e-05
1.57731e-05
1.57726e-05
1.5772e-05
1.57732e-05
1.80023e-05
1.79846e-05
1.57729e-05
1.57729e-05
1.57735e-05
1.79833e-05
1.80034e-05
1.79863e-05
1.57731e-05
1.57734e-05
1.57734e-05
1.57739e-05
1.80023e-05
1.79865e-05
1.57734e-05
1.57732e-05
1.57738e-05
1.57737e-05
1.57733e-05
1.57727e-05
1.57738e-05
1.80029e-05
1.7986e-05
1.57736e-05
1.57735e-05
1.5774e-05
1.79849e-05
1.80042e-05
1.79867e-05
1.57735e-05
1.5774e-05
1.57738e-05
1.57743e-05
1.80047e-05
1.79856e-05
1.57737e-05
1.57738e-05
1.57738e-05
1.57742e-05
1.57739e-05
1.57728e-05
1.57743e-05
1.80039e-05
1.79865e-05
1.57741e-05
1.57738e-05
1.57744e-05
1.7986e-05
1.80047e-05
1.7988e-05
1.57737e-05
1.57744e-05
1.57738e-05
1.57745e-05
1.80046e-05
1.79857e-05
1.57738e-05
1.57741e-05
1.57739e-05
1.57742e-05
1.57744e-05
1.57729e-05
1.57747e-05
1.80046e-05
1.79873e-05
1.57743e-05
1.57739e-05
1.57745e-05
1.79869e-05
1.80055e-05
1.79886e-05
1.57737e-05
1.57746e-05
1.57736e-05
1.57749e-05
1.80037e-05
1.79881e-05
1.57738e-05
1.57742e-05
1.57739e-05
1.57739e-05
1.57747e-05
1.57731e-05
1.57746e-05
1.80048e-05
1.79882e-05
1.57744e-05
1.57736e-05
1.57745e-05
1.79882e-05
1.80064e-05
1.79879e-05
1.57735e-05
1.57748e-05
1.57732e-05
1.57742e-05
1.80051e-05
1.79889e-05
1.57738e-05
1.57736e-05
1.57734e-05
1.57733e-05
1.57745e-05
1.57725e-05
1.57738e-05
1.80057e-05
1.79876e-05
1.57744e-05
1.57728e-05
1.5774e-05
1.7988e-05
1.8006e-05
1.79876e-05
1.57732e-05
1.57739e-05
1.57731e-05
1.57733e-05
1.80061e-05
1.79879e-05
1.57733e-05
1.57733e-05
1.57731e-05
1.57732e-05
1.57737e-05
1.57717e-05
1.5773e-05
1.80057e-05
1.7987e-05
1.57739e-05
1.57724e-05
1.57733e-05
1.79877e-05
1.80056e-05
1.79879e-05
1.5773e-05
1.57731e-05
1.57727e-05
1.57726e-05
1.8006e-05
1.79869e-05
1.57731e-05
1.57732e-05
1.5773e-05
1.57728e-05
1.57729e-05
1.57711e-05
1.57723e-05
1.80057e-05
1.79864e-05
1.57731e-05
1.57717e-05
1.57724e-05
1.79869e-05
1.8006e-05
1.79867e-05
1.57724e-05
1.57724e-05
1.57703e-05
1.57707e-05
1.80055e-05
1.79855e-05
1.57729e-05
1.57726e-05
1.57712e-05
1.57706e-05
1.57722e-05
1.57697e-05
1.57705e-05
1.80051e-05
1.79854e-05
1.57722e-05
1.57703e-05
1.57706e-05
1.79855e-05
1.80048e-05
1.79849e-05
1.577e-05
1.57705e-05
1.57687e-05
1.5769e-05
1.80039e-05
1.79841e-05
1.57708e-05
1.57703e-05
1.57694e-05
1.57688e-05
1.57703e-05
1.57679e-05
1.57688e-05
1.8004e-05
1.79838e-05
1.57704e-05
1.57689e-05
1.5769e-05
1.79836e-05
1.80031e-05
1.79821e-05
1.57682e-05
1.57684e-05
1.57647e-05
1.57646e-05
1.80024e-05
1.79798e-05
1.57689e-05
1.57683e-05
1.57652e-05
1.57646e-05
1.57681e-05
1.57636e-05
1.57641e-05
1.80026e-05
1.798e-05
1.57684e-05
1.57649e-05
1.57643e-05
1.79798e-05
1.80003e-05
1.79778e-05
1.57644e-05
1.57644e-05
1.57635e-05
1.57635e-05
1.79985e-05
1.79759e-05
1.57649e-05
1.57642e-05
1.57638e-05
1.5763e-05
1.57638e-05
1.57627e-05
1.57629e-05
1.79988e-05
1.79759e-05
1.5764e-05
1.57636e-05
1.5763e-05
1.79767e-05
1.79966e-05
1.79786e-05
1.57635e-05
1.57635e-05
1.57634e-05
1.57635e-05
1.79953e-05
1.79768e-05
1.57639e-05
1.5763e-05
1.57638e-05
1.5763e-05
1.57629e-05
1.57628e-05
1.57629e-05
1.79947e-05
1.79773e-05
1.5763e-05
1.57637e-05
1.5763e-05
1.7977e-05
1.79975e-05
1.79773e-05
1.57636e-05
1.57637e-05
1.57636e-05
1.57637e-05
1.7996e-05
1.79752e-05
1.5764e-05
1.57631e-05
1.5764e-05
1.57632e-05
1.57631e-05
1.57631e-05
1.57631e-05
1.7996e-05
1.79763e-05
1.57632e-05
1.5764e-05
1.57632e-05
1.79744e-05
1.79957e-05
1.79781e-05
1.5764e-05
1.57641e-05
1.57638e-05
1.5764e-05
1.79942e-05
1.79756e-05
1.57643e-05
1.57635e-05
1.57642e-05
1.57635e-05
1.57635e-05
1.57633e-05
1.57635e-05
1.79947e-05
1.79772e-05
1.57636e-05
1.57642e-05
1.57636e-05
1.7975e-05
1.79959e-05
1.79782e-05
1.57643e-05
1.57645e-05
1.57638e-05
1.57642e-05
1.79936e-05
1.79764e-05
1.57647e-05
1.5764e-05
1.57642e-05
1.57637e-05
1.5764e-05
1.57633e-05
1.57638e-05
1.79949e-05
1.79774e-05
1.57641e-05
1.57642e-05
1.57639e-05
1.79768e-05
1.79956e-05
1.79783e-05
1.57645e-05
1.57649e-05
1.57635e-05
1.57639e-05
1.79938e-05
1.79766e-05
1.57649e-05
1.57644e-05
1.57639e-05
1.57635e-05
1.57646e-05
1.5763e-05
1.57638e-05
1.79949e-05
1.79777e-05
1.57647e-05
1.57639e-05
1.57638e-05
1.79786e-05
1.79951e-05
1.7978e-05
1.57644e-05
1.57648e-05
1.57605e-05
1.57608e-05
1.79933e-05
1.7977e-05
1.57648e-05
1.57644e-05
1.57608e-05
1.57605e-05
1.57648e-05
1.57601e-05
1.57609e-05
1.79944e-05
1.79779e-05
1.57647e-05
1.57608e-05
1.57608e-05
1.7979e-05
1.79936e-05
1.78397e-05
1.57639e-05
1.57643e-05
1.56217e-05
1.56222e-05
1.79918e-05
1.78394e-05
1.57643e-05
1.5764e-05
1.56223e-05
1.56215e-05
1.57644e-05
1.56219e-05
1.5622e-05
1.79932e-05
1.78395e-05
1.57642e-05
1.56222e-05
1.56223e-05
1.78406e-05
1.76528e-05
1.54414e-05
1.54418e-05
1.76523e-05
1.54422e-05
1.54412e-05
1.39899e-05
1.39898e-05
1.39899e-05
1.54417e-05
1.76525e-05
1.54421e-05
1.40157e-05
1.40161e-05
1.40163e-05
1.40163e-05
5.16908e-05
6.9623e-05
5.16905e-05
6.96233e-05
6.94902e-05
6.94946e-05
5.16982e-05
6.96283e-05
5.16976e-05
6.96284e-05
1.40163e-05
1.40163e-05
1.40166e-05
1.40159e-05
1.40164e-05
1.40162e-05
1.40166e-05
2.86747e-05
4.46251e-05
1.42468e-05
1.57628e-05
2.86833e-05
4.46218e-05
1.42471e-05
6.94889e-05
6.94935e-05
2.86784e-05
1.42471e-05
4.46282e-05
1.57632e-05
2.86869e-05
1.42474e-05
4.46251e-05
5.82886e-05
5.82995e-05
1.79723e-05
5.82892e-05
5.83e-05
5.16924e-05
6.96214e-05
5.16898e-05
6.96218e-05
6.94879e-05
6.94925e-05
5.16968e-05
6.96266e-05
5.1695e-05
6.9627e-05
1.40168e-05
1.40167e-05
1.40171e-05
1.40164e-05
1.40169e-05
1.40167e-05
1.40171e-05
2.86743e-05
4.4627e-05
1.42473e-05
1.57644e-05
2.86817e-05
4.4624e-05
1.42475e-05
6.94863e-05
6.94913e-05
2.86792e-05
1.42476e-05
4.46306e-05
1.57649e-05
2.86863e-05
1.42478e-05
4.4628e-05
5.82882e-05
5.8299e-05
1.79725e-05
5.82892e-05
5.83001e-05
5.16956e-05
6.96203e-05
5.16935e-05
6.9621e-05
6.94863e-05
6.94914e-05
5.16997e-05
6.96255e-05
5.16968e-05
6.96262e-05
1.40174e-05
1.40172e-05
1.40176e-05
1.40169e-05
1.40174e-05
1.40172e-05
1.40176e-05
2.86763e-05
4.46298e-05
1.42477e-05
1.57656e-05
2.86827e-05
4.46267e-05
1.4248e-05
6.9485e-05
6.94904e-05
2.86807e-05
1.42481e-05
4.46341e-05
1.57663e-05
2.86876e-05
1.42483e-05
4.46316e-05
5.82897e-05
5.83008e-05
1.79731e-05
5.82921e-05
5.83028e-05
5.17038e-05
6.96201e-05
5.16975e-05
6.96211e-05
6.9486e-05
6.94914e-05
5.17045e-05
6.96252e-05
5.17015e-05
6.96262e-05
1.40178e-05
1.40176e-05
1.4018e-05
1.40174e-05
1.40177e-05
1.40175e-05
1.4018e-05
2.86799e-05
4.46322e-05
1.42482e-05
1.57664e-05
2.8686e-05
4.46293e-05
1.42484e-05
6.94846e-05
6.94902e-05
2.86836e-05
1.42486e-05
4.46379e-05
1.57675e-05
2.86901e-05
1.42488e-05
4.46353e-05
5.82939e-05
5.83041e-05
1.79742e-05
5.82964e-05
5.83065e-05
5.17065e-05
6.96206e-05
5.17043e-05
6.96218e-05
6.94863e-05
6.94919e-05
5.17122e-05
6.96256e-05
5.17077e-05
6.96268e-05
1.40179e-05
1.40178e-05
1.40182e-05
1.40178e-05
1.40179e-05
1.40179e-05
1.40182e-05
2.86844e-05
4.46356e-05
1.42487e-05
1.57671e-05
2.86902e-05
4.46327e-05
1.42489e-05
6.94849e-05
6.94909e-05
2.86878e-05
1.42491e-05
4.46411e-05
1.57684e-05
2.8694e-05
1.42493e-05
4.46383e-05
5.82977e-05
5.83081e-05
1.79756e-05
5.83001e-05
5.83105e-05
5.17127e-05
6.96215e-05
5.17095e-05
6.96228e-05
6.94871e-05
6.94928e-05
5.17163e-05
6.96264e-05
5.17135e-05
6.96277e-05
1.40183e-05
1.40183e-05
1.40186e-05
1.40183e-05
1.40183e-05
1.40182e-05
1.40186e-05
2.86903e-05
4.46387e-05
1.42493e-05
1.57677e-05
2.86958e-05
4.46357e-05
1.42495e-05
6.94858e-05
6.94919e-05
2.86919e-05
1.42496e-05
4.46437e-05
1.57692e-05
2.86982e-05
1.42499e-05
4.46409e-05
5.83013e-05
5.83122e-05
1.79772e-05
5.83034e-05
5.83145e-05
5.1718e-05
6.96225e-05
5.17153e-05
6.96237e-05
6.9488e-05
6.94936e-05
5.17196e-05
6.96275e-05
5.17173e-05
6.96288e-05
1.40186e-05
1.40186e-05
1.4019e-05
1.40187e-05
1.40186e-05
1.40186e-05
1.4019e-05
2.86955e-05
4.46411e-05
1.42499e-05
1.57684e-05
2.87014e-05
4.46379e-05
1.42502e-05
6.94865e-05
6.94924e-05
2.86955e-05
1.42502e-05
4.4646e-05
1.57698e-05
2.87017e-05
1.42505e-05
4.4643e-05
5.83037e-05
5.83147e-05
1.7979e-05
5.83048e-05
5.83158e-05
5.17212e-05
6.96235e-05
5.17195e-05
6.96248e-05
6.94888e-05
6.94944e-05
5.17219e-05
6.96285e-05
5.17199e-05
6.96297e-05
1.40191e-05
1.4019e-05
1.40195e-05
1.40191e-05
1.40191e-05
1.4019e-05
1.40195e-05
2.86987e-05
4.46427e-05
1.42506e-05
1.5769e-05
2.87052e-05
4.46393e-05
1.42509e-05
6.94872e-05
6.94932e-05
2.86995e-05
1.42508e-05
4.46477e-05
1.57704e-05
2.87059e-05
1.42511e-05
4.46445e-05
5.83048e-05
5.8316e-05
1.79807e-05
5.83057e-05
5.83171e-05
5.17197e-05
6.96246e-05
5.17185e-05
6.96258e-05
6.94895e-05
6.94952e-05
5.17239e-05
6.96293e-05
5.17218e-05
6.96305e-05
1.40195e-05
1.40195e-05
1.40199e-05
1.40196e-05
1.40196e-05
1.40195e-05
1.40199e-05
2.87006e-05
4.46439e-05
1.42512e-05
1.57698e-05
2.87075e-05
4.46404e-05
1.42515e-05
6.94879e-05
6.94937e-05
2.87021e-05
1.42515e-05
4.46488e-05
1.57712e-05
2.87089e-05
1.42518e-05
4.46454e-05
5.83052e-05
5.83166e-05
1.79826e-05
5.83061e-05
5.83175e-05
5.17211e-05
6.96252e-05
5.17194e-05
6.96263e-05
6.94902e-05
6.94958e-05
5.17269e-05
6.96299e-05
5.17249e-05
6.9631e-05
1.40201e-05
1.40199e-05
1.40204e-05
1.40199e-05
1.40201e-05
1.40199e-05
1.40204e-05
2.87033e-05
4.46449e-05
1.42519e-05
1.57707e-05
2.87099e-05
4.46414e-05
1.42522e-05
6.94883e-05
6.94941e-05
2.87036e-05
1.42521e-05
4.46494e-05
1.57719e-05
2.87111e-05
1.42524e-05
4.46459e-05
5.83053e-05
5.83166e-05
1.79847e-05
5.8306e-05
5.83173e-05
5.17206e-05
6.96256e-05
5.17193e-05
6.96266e-05
6.94907e-05
6.94963e-05
5.17245e-05
6.96303e-05
5.17232e-05
6.96313e-05
1.40205e-05
1.40202e-05
1.40204e-05
1.40198e-05
1.40204e-05
1.40201e-05
1.40198e-05
2.87047e-05
4.46459e-05
1.42525e-05
1.57716e-05
2.87118e-05
4.46421e-05
1.42528e-05
6.94886e-05
6.94943e-05
2.87041e-05
1.42527e-05
4.46498e-05
1.57725e-05
2.87114e-05
1.42529e-05
4.46462e-05
5.83049e-05
5.83163e-05
1.79862e-05
5.83055e-05
5.83171e-05
5.17204e-05
6.96258e-05
5.17192e-05
6.96268e-05
6.94912e-05
6.94968e-05
5.17246e-05
6.96305e-05
5.1723e-05
6.96314e-05
1.40204e-05
1.40203e-05
1.40199e-05
1.4019e-05
1.40195e-05
1.40198e-05
1.40196e-05
2.87056e-05
4.46461e-05
1.42531e-05
1.57723e-05
2.87129e-05
4.46422e-05
1.42533e-05
6.94889e-05
6.9495e-05
2.87045e-05
1.42531e-05
4.46497e-05
1.57731e-05
2.87123e-05
1.42533e-05
4.4646e-05
5.83043e-05
5.83161e-05
1.7987e-05
5.8305e-05
5.83168e-05
5.17194e-05
6.96259e-05
5.17182e-05
6.96268e-05
6.94917e-05
6.94973e-05
5.17272e-05
6.96305e-05
5.17247e-05
6.96315e-05
1.40192e-05
1.40198e-05
1.40196e-05
1.40184e-05
1.40182e-05
1.40194e-05
1.4019e-05
2.87061e-05
4.46458e-05
1.42534e-05
1.57727e-05
2.87135e-05
4.46417e-05
1.42534e-05
6.94898e-05
6.94955e-05
2.87046e-05
1.42535e-05
4.46494e-05
1.57736e-05
2.87122e-05
1.42535e-05
4.46456e-05
5.83041e-05
5.83155e-05
1.79873e-05
5.83048e-05
5.83161e-05
5.17186e-05
6.96259e-05
5.17184e-05
6.96268e-05
6.94921e-05
6.94976e-05
5.17252e-05
6.96306e-05
5.17241e-05
6.96315e-05
1.40183e-05
1.40194e-05
1.40189e-05
1.40178e-05
1.40181e-05
1.40189e-05
1.40186e-05
2.87064e-05
4.46452e-05
1.42527e-05
1.57727e-05
2.87139e-05
4.46409e-05
1.42527e-05
6.94898e-05
6.94956e-05
2.87041e-05
1.42528e-05
4.46488e-05
1.57738e-05
2.87121e-05
1.42527e-05
4.46449e-05
5.83034e-05
5.83143e-05
1.79883e-05
5.83038e-05
5.83147e-05
5.17168e-05
6.96259e-05
5.17174e-05
6.96268e-05
6.94922e-05
6.94976e-05
5.17246e-05
6.96305e-05
5.17235e-05
6.96314e-05
1.40182e-05
1.40188e-05
1.40186e-05
1.40174e-05
1.40178e-05
1.40175e-05
1.40177e-05
2.87063e-05
4.46443e-05
1.42523e-05
1.5773e-05
2.8714e-05
4.46401e-05
1.42522e-05
6.94901e-05
6.9496e-05
2.87032e-05
1.4252e-05
4.4648e-05
1.57737e-05
2.87113e-05
1.42519e-05
4.46441e-05
5.83028e-05
5.83131e-05
1.79881e-05
5.83035e-05
5.83138e-05
5.17153e-05
6.96258e-05
5.1716e-05
6.96267e-05
6.94922e-05
6.94977e-05
5.17227e-05
6.96304e-05
5.17218e-05
6.96313e-05
1.40176e-05
1.40174e-05
1.40175e-05
1.40165e-05
1.40166e-05
1.40167e-05
1.40167e-05
2.87062e-05
4.46436e-05
1.42516e-05
1.57729e-05
2.87139e-05
4.46394e-05
1.42514e-05
6.94901e-05
6.94958e-05
2.87029e-05
1.42511e-05
4.46474e-05
1.5773e-05
2.87106e-05
1.4251e-05
4.46435e-05
5.83026e-05
5.83129e-05
1.79876e-05
5.83032e-05
5.83137e-05
5.17139e-05
6.96257e-05
5.17146e-05
6.96267e-05
6.94923e-05
6.94979e-05
5.17213e-05
6.96304e-05
5.17203e-05
6.96314e-05
1.40165e-05
1.40169e-05
1.40166e-05
1.40162e-05
1.4016e-05
1.40167e-05
1.40161e-05
2.87058e-05
4.46429e-05
1.42507e-05
1.57719e-05
2.87137e-05
4.46388e-05
1.42506e-05
6.94898e-05
6.94957e-05
2.87023e-05
1.42506e-05
4.46469e-05
1.57725e-05
2.87104e-05
1.42505e-05
4.46431e-05
5.83021e-05
5.83132e-05
1.79867e-05
5.83033e-05
5.83144e-05
5.17138e-05
6.96258e-05
5.17134e-05
6.9627e-05
6.94921e-05
6.94979e-05
5.17202e-05
6.96305e-05
5.17195e-05
6.96318e-05
1.4016e-05
1.40167e-05
1.4016e-05
1.40155e-05
1.40153e-05
1.40153e-05
1.40153e-05
2.87053e-05
4.46427e-05
1.42503e-05
1.57713e-05
2.8713e-05
4.46388e-05
1.42502e-05
6.94894e-05
6.94955e-05
2.8701e-05
1.42502e-05
4.46466e-05
1.5772e-05
2.87093e-05
1.42501e-05
4.46429e-05
5.83031e-05
5.83144e-05
1.79858e-05
5.83055e-05
5.83161e-05
5.17144e-05
6.96261e-05
5.1713e-05
6.96273e-05
6.94919e-05
6.94978e-05
5.17224e-05
6.9631e-05
5.17204e-05
6.96324e-05
1.4015e-05
1.40149e-05
1.40151e-05
1.40136e-05
1.40133e-05
1.40131e-05
1.40133e-05
2.8706e-05
4.46433e-05
1.42495e-05
1.57704e-05
2.87134e-05
4.46397e-05
1.42491e-05
6.94895e-05
6.94958e-05
2.8701e-05
1.42492e-05
4.46471e-05
1.57709e-05
2.87087e-05
1.42488e-05
4.46438e-05
5.83074e-05
5.8317e-05
1.79849e-05
5.831e-05
5.83194e-05
5.17177e-05
6.96263e-05
5.17156e-05
6.96276e-05
6.94916e-05
6.94982e-05
5.17266e-05
6.96313e-05
5.17235e-05
6.96327e-05
1.40131e-05
1.40128e-05
1.40131e-05
1.40123e-05
1.40118e-05
1.40118e-05
1.4012e-05
2.87066e-05
4.4645e-05
1.4248e-05
1.5769e-05
2.87143e-05
4.46413e-05
1.42477e-05
6.94891e-05
6.94959e-05
2.87016e-05
1.42476e-05
4.46488e-05
1.57695e-05
2.87093e-05
1.42473e-05
4.46457e-05
5.83109e-05
5.83214e-05
1.79836e-05
5.83107e-05
5.83218e-05
5.17172e-05
6.96261e-05
5.17174e-05
6.96278e-05
6.94913e-05
6.94987e-05
5.17265e-05
6.96314e-05
5.17258e-05
6.9633e-05
1.40108e-05
1.40111e-05
1.4011e-05
1.40091e-05
1.40084e-05
1.40084e-05
1.40081e-05
2.87059e-05
4.46463e-05
1.42454e-05
1.57652e-05
2.87142e-05
4.46419e-05
1.4244e-05
6.94889e-05
6.94965e-05
2.87015e-05
1.42459e-05
4.46506e-05
1.57668e-05
2.87097e-05
1.42445e-05
4.46465e-05
5.83107e-05
5.83223e-05
1.798e-05
5.8308e-05
5.83199e-05
5.17156e-05
6.96263e-05
5.17171e-05
6.96287e-05
6.9491e-05
6.94998e-05
5.17245e-05
6.96316e-05
5.17253e-05
6.9634e-05
1.40087e-05
1.40086e-05
1.40084e-05
1.40094e-05
1.40087e-05
1.40086e-05
1.40084e-05
2.87047e-05
4.46469e-05
1.42431e-05
1.57628e-05
2.87133e-05
4.46416e-05
1.42431e-05
6.9488e-05
6.94968e-05
2.86998e-05
1.4243e-05
4.46512e-05
1.57639e-05
2.87087e-05
1.4243e-05
4.46463e-05
5.83087e-05
5.83205e-05
1.79754e-05
5.83057e-05
5.83173e-05
5.17107e-05
6.96272e-05
5.17148e-05
6.96309e-05
6.94904e-05
6.95014e-05
5.17212e-05
6.96326e-05
5.17234e-05
6.96362e-05
1.40092e-05
1.4009e-05
1.40089e-05
1.40098e-05
1.40094e-05
1.40091e-05
1.4009e-05
2.87029e-05
4.46475e-05
1.42432e-05
1.57626e-05
2.87118e-05
4.4641e-05
1.42432e-05
6.94868e-05
6.94981e-05
2.86975e-05
1.42432e-05
4.46521e-05
1.57635e-05
2.87067e-05
1.42432e-05
4.46461e-05
5.83098e-05
5.83209e-05
1.79751e-05
5.83056e-05
5.8317e-05
5.17069e-05
6.96291e-05
5.17113e-05
6.96348e-05
6.94892e-05
6.95041e-05
5.17163e-05
6.96345e-05
5.17199e-05
6.964e-05
1.40099e-05
1.40097e-05
1.40095e-05
1.40103e-05
1.40098e-05
1.40097e-05
1.40095e-05
2.87006e-05
4.46492e-05
1.42435e-05
1.57628e-05
2.87103e-05
4.46408e-05
1.42435e-05
6.94858e-05
6.95012e-05
2.86951e-05
1.42435e-05
4.46542e-05
1.57637e-05
2.87047e-05
1.42435e-05
4.4646e-05
5.83144e-05
5.83258e-05
1.79772e-05
5.83073e-05
5.8319e-05
5.17031e-05
6.96319e-05
5.17074e-05
6.96406e-05
6.94873e-05
6.95082e-05
5.17112e-05
6.9637e-05
5.17162e-05
6.96458e-05
1.40104e-05
1.40102e-05
1.401e-05
1.40107e-05
1.40104e-05
1.40103e-05
1.401e-05
2.8698e-05
4.46534e-05
1.42439e-05
1.57631e-05
2.87085e-05
4.46409e-05
1.42439e-05
6.94845e-05
6.9506e-05
2.8693e-05
1.42438e-05
4.46582e-05
1.5764e-05
2.87032e-05
1.42438e-05
4.46457e-05
5.83203e-05
5.83319e-05
1.79788e-05
5.83056e-05
5.83173e-05
5.17004e-05
6.96343e-05
5.17039e-05
6.96468e-05
6.94835e-05
6.95133e-05
5.17079e-05
6.96397e-05
5.1712e-05
6.96525e-05
1.40111e-05
1.4011e-05
1.40106e-05
1.40109e-05
1.40108e-05
1.40108e-05
1.40108e-05
2.86957e-05
4.46605e-05
1.42443e-05
1.57632e-05
2.87077e-05
4.46398e-05
1.42442e-05
6.94816e-05
6.9512e-05
2.86914e-05
1.42442e-05
4.46646e-05
1.57641e-05
2.87032e-05
1.42441e-05
4.46439e-05
5.83219e-05
5.83336e-05
1.79787e-05
5.82946e-05
5.83063e-05
5.1702e-05
6.96309e-05
5.17027e-05
6.96497e-05
6.94755e-05
6.95184e-05
5.17105e-05
6.96367e-05
5.17114e-05
6.96553e-05
1.40112e-05
1.40113e-05
1.40115e-05
1.4011e-05
1.40108e-05
1.40108e-05
1.40112e-05
2.86934e-05
4.46719e-05
1.42446e-05
1.57631e-05
2.87091e-05
4.46344e-05
1.42443e-05
6.94746e-05
6.9518e-05
2.86896e-05
1.42445e-05
4.46751e-05
1.5764e-05
2.87051e-05
1.42442e-05
4.46372e-05
5.83169e-05
5.83285e-05
1.79781e-05
5.82707e-05
5.82824e-05
5.1699e-05
6.96177e-05
5.16986e-05
6.96491e-05
6.94611e-05
6.95221e-05
5.17057e-05
6.96229e-05
5.17057e-05
6.96541e-05
1.40114e-05
1.40113e-05
1.40117e-05
1.40109e-05
1.40109e-05
1.40108e-05
1.40109e-05
2.86886e-05
4.46869e-05
1.42448e-05
1.57625e-05
2.87132e-05
4.46164e-05
1.42443e-05
6.94613e-05
6.95225e-05
2.86854e-05
1.42447e-05
4.46886e-05
1.57633e-05
2.87097e-05
1.42442e-05
4.46177e-05
5.83033e-05
5.83148e-05
1.79774e-05
5.82291e-05
5.82407e-05
5.16631e-05
6.95888e-05
5.16813e-05
6.96446e-05
6.94389e-05
6.95221e-05
5.16679e-05
6.95935e-05
5.16865e-05
6.96492e-05
1.40119e-05
1.40119e-05
1.4012e-05
1.40069e-05
1.4007e-05
1.4007e-05
1.40071e-05
2.86249e-05
4.4705e-05
1.42451e-05
1.57427e-05
2.87125e-05
4.45388e-05
1.424e-05
6.94397e-05
6.9523e-05
2.86221e-05
1.42451e-05
4.47055e-05
1.57433e-05
2.87096e-05
1.42399e-05
4.45388e-05
5.82736e-05
5.82852e-05
1.79591e-05
5.81352e-05
5.81468e-05
4.49585e-05
6.86143e-05
5.12089e-05
7.10805e-05
6.91432e-05
6.01796e-05
4.49618e-05
6.86173e-05
5.12126e-05
7.10849e-05
1.41533e-05
1.39364e-05
1.39366e-05
1.40827e-05
1.41455e-05
1.39371e-05
1.39373e-05
2.72006e-05
4.36844e-05
1.41983e-05
1.51674e-05
2.81372e-05
4.62458e-05
1.40698e-05
6.91438e-05
6.01805e-05
2.71982e-05
1.41981e-05
4.36839e-05
1.51674e-05
2.81345e-05
1.40696e-05
4.62446e-05
5.78188e-05
5.78298e-05
1.71619e-05
5.5785e-05
5.57932e-05
6.94953e-05
6.94967e-05
5.82899e-05
5.82993e-05
6.96242e-05
5.16912e-05
6.9629e-05
6.96285e-05
5.1693e-05
4.46252e-05
1.42465e-05
2.86743e-05
1.57631e-05
4.46269e-05
1.4247e-05
4.46311e-05
2.86777e-05
6.94959e-05
6.9492e-05
1.79927e-05
5.82993e-05
5.82845e-05
5.8298e-05
5.82841e-05
6.94916e-05
6.94876e-05
6.96294e-05
5.16987e-05
4.46284e-05
1.4247e-05
2.868e-05
6.96238e-05
5.1697e-05
1.4247e-05
4.46252e-05
2.86802e-05
2.86866e-05
1.57617e-05
4.46214e-05
1.42467e-05
4.4623e-05
1.42465e-05
2.86764e-05
5.16966e-05
6.96265e-05
6.96261e-05
5.16984e-05
2.86871e-05
1.57629e-05
1.4247e-05
4.46237e-05
1.42469e-05
4.46267e-05
2.8677e-05
5.16958e-05
6.96238e-05
6.96234e-05
5.1698e-05
6.9495e-05
5.82954e-05
5.82882e-05
6.9495e-05
1.4247e-05
4.46248e-05
2.86797e-05
1.5763e-05
1.42471e-05
4.46274e-05
4.46304e-05
2.86805e-05
6.96248e-05
5.16934e-05
6.96282e-05
6.96277e-05
5.16967e-05
1.799e-05
5.82895e-05
5.83005e-05
5.82884e-05
5.82993e-05
6.94931e-05
6.94892e-05
6.9495e-05
6.94911e-05
6.94897e-05
6.94936e-05
6.9491e-05
6.94951e-05
5.82871e-05
5.82965e-05
1.79702e-05
5.82885e-05
5.82982e-05
6.94923e-05
6.94881e-05
6.94938e-05
6.94895e-05
1.79881e-05
5.82878e-05
5.8298e-05
5.82859e-05
5.82957e-05
5.16903e-05
6.96276e-05
5.16887e-05
6.9628e-05
2.86738e-05
4.46271e-05
1.42466e-05
1.57632e-05
2.86793e-05
4.46268e-05
1.42468e-05
2.86769e-05
4.46279e-05
1.42471e-05
1.57643e-05
2.86827e-05
4.4626e-05
1.42473e-05
5.16865e-05
6.96224e-05
6.96219e-05
5.16898e-05
5.16862e-05
6.96271e-05
6.96266e-05
5.16909e-05
2.8678e-05
1.57637e-05
4.46281e-05
1.4247e-05
4.4628e-05
1.42469e-05
2.86729e-05
2.86812e-05
1.57647e-05
4.46262e-05
1.42474e-05
4.46272e-05
1.42473e-05
2.8676e-05
5.82966e-05
5.82821e-05
1.79706e-05
5.82982e-05
5.82832e-05
6.94857e-05
6.94902e-05
6.94935e-05
6.94891e-05
1.79883e-05
5.82977e-05
5.82828e-05
5.82957e-05
5.8281e-05
6.94892e-05
6.94844e-05
2.86796e-05
4.46307e-05
1.42471e-05
1.57639e-05
2.86849e-05
4.46307e-05
1.42473e-05
5.16952e-05
6.96224e-05
5.16928e-05
6.96229e-05
2.86798e-05
1.42471e-05
4.46276e-05
1.57632e-05
2.86852e-05
1.42472e-05
4.46276e-05
5.16936e-05
6.96276e-05
6.96271e-05
5.16957e-05
2.86837e-05
1.57644e-05
4.46326e-05
1.42475e-05
4.46325e-05
1.42473e-05
2.86786e-05
5.16908e-05
6.96222e-05
6.96216e-05
5.16941e-05
2.8684e-05
1.57637e-05
1.42473e-05
4.46294e-05
1.42472e-05
4.46295e-05
2.86791e-05
5.16972e-05
6.96252e-05
5.16944e-05
6.96257e-05
2.86755e-05
1.42473e-05
4.46248e-05
1.57641e-05
2.8681e-05
1.42474e-05
4.46238e-05
5.16967e-05
6.96225e-05
5.16942e-05
6.9623e-05
2.86789e-05
1.57634e-05
4.46231e-05
1.42472e-05
4.46234e-05
1.42471e-05
2.86743e-05
5.16933e-05
6.9625e-05
6.96244e-05
5.16966e-05
2.86797e-05
1.57645e-05
1.42475e-05
4.46247e-05
1.42474e-05
4.4625e-05
2.8675e-05
5.16925e-05
6.96222e-05
6.96217e-05
5.16953e-05
5.82932e-05
5.82854e-05
1.79701e-05
5.82945e-05
5.82866e-05
6.94893e-05
6.94932e-05
6.94922e-05
6.94875e-05
1.79879e-05
5.82939e-05
5.8286e-05
5.82923e-05
5.82841e-05
6.94917e-05
6.94876e-05
2.86797e-05
1.42472e-05
4.46286e-05
1.57643e-05
2.86853e-05
1.42474e-05
4.46275e-05
5.1691e-05
6.96234e-05
5.16893e-05
6.96238e-05
5.16939e-05
6.96269e-05
5.16922e-05
6.96273e-05
2.86829e-05
1.57638e-05
1.42475e-05
4.46268e-05
1.42474e-05
4.46266e-05
2.86785e-05
2.86838e-05
1.57647e-05
1.42476e-05
4.46284e-05
1.42475e-05
4.46288e-05
2.86788e-05
5.16871e-05
6.9623e-05
6.96225e-05
5.16912e-05
5.16897e-05
6.96266e-05
6.9626e-05
5.16935e-05
6.94875e-05
6.94918e-05
6.94894e-05
6.94936e-05
1.79875e-05
5.82889e-05
5.82997e-05
5.82868e-05
5.82975e-05
6.94908e-05
6.94863e-05
6.94926e-05
6.94882e-05
6.94868e-05
6.94911e-05
6.94882e-05
6.94926e-05
5.82853e-05
5.82956e-05
1.79708e-05
5.82874e-05
5.82978e-05
6.94904e-05
6.94857e-05
6.94918e-05
6.94871e-05
1.79886e-05
5.82881e-05
5.82981e-05
5.82851e-05
5.82954e-05
5.1694e-05
6.96258e-05
5.16884e-05
6.96263e-05
2.86734e-05
4.46294e-05
1.42472e-05
1.57649e-05
2.86773e-05
4.46295e-05
1.42473e-05
2.86763e-05
4.46275e-05
1.42476e-05
1.57657e-05
2.86805e-05
4.4627e-05
1.42478e-05
5.16888e-05
6.96213e-05
6.96206e-05
5.16935e-05
5.16903e-05
6.96257e-05
6.9625e-05
5.16946e-05
2.86779e-05
1.57653e-05
4.46309e-05
1.42475e-05
4.46307e-05
1.42474e-05
2.86743e-05
2.86808e-05
1.57661e-05
4.46281e-05
1.4248e-05
4.46285e-05
1.42479e-05
2.8677e-05
5.82953e-05
5.82809e-05
1.79708e-05
5.82974e-05
5.8284e-05
6.94835e-05
6.94886e-05
6.94918e-05
6.94871e-05
1.79884e-05
5.82976e-05
5.82855e-05
5.8295e-05
5.82824e-05
6.94881e-05
6.9483e-05
2.86788e-05
4.46343e-05
1.42476e-05
1.57655e-05
2.86829e-05
4.46341e-05
1.42478e-05
5.16962e-05
6.96209e-05
5.16904e-05
6.96216e-05
2.86795e-05
1.42476e-05
4.46313e-05
1.5765e-05
2.86834e-05
1.42477e-05
4.46311e-05
5.16929e-05
6.96265e-05
6.96258e-05
5.16972e-05
2.86832e-05
1.57659e-05
4.46354e-05
1.4248e-05
4.46358e-05
1.42479e-05
2.86796e-05
5.16926e-05
6.96212e-05
6.96204e-05
5.16965e-05
2.86839e-05
1.57654e-05
1.42479e-05
4.46327e-05
1.42478e-05
4.46329e-05
2.86803e-05
5.1697e-05
6.96238e-05
5.16935e-05
6.96245e-05
2.86751e-05
1.42478e-05
4.46259e-05
1.57657e-05
2.86792e-05
1.42479e-05
4.46258e-05
5.16957e-05
6.9621e-05
5.16921e-05
6.96216e-05
2.86787e-05
1.57648e-05
4.46258e-05
1.42476e-05
4.46258e-05
1.42476e-05
2.8675e-05
5.16929e-05
6.96241e-05
6.96233e-05
5.1696e-05
2.86794e-05
1.5766e-05
1.4248e-05
4.46272e-05
1.42479e-05
4.46272e-05
2.86757e-05
5.16918e-05
6.96212e-05
6.96204e-05
5.16952e-05
5.82919e-05
5.82835e-05
1.79707e-05
5.82943e-05
5.82859e-05
6.94862e-05
6.94907e-05
6.94907e-05
6.94856e-05
1.79885e-05
5.82955e-05
5.82871e-05
5.82925e-05
5.82838e-05
6.949e-05
6.94853e-05
2.86792e-05
1.42478e-05
4.463e-05
1.57658e-05
2.86831e-05
1.42479e-05
4.46297e-05
5.16939e-05
6.96217e-05
5.16887e-05
6.96223e-05
5.1697e-05
6.96253e-05
5.16904e-05
6.9626e-05
2.86838e-05
1.57654e-05
1.42479e-05
4.46302e-05
1.42479e-05
4.46297e-05
2.86799e-05
2.86836e-05
1.57661e-05
1.42481e-05
4.46312e-05
1.4248e-05
4.46313e-05
2.86799e-05
5.169e-05
6.96218e-05
6.96211e-05
5.16926e-05
5.16935e-05
6.96256e-05
6.96248e-05
5.16971e-05
6.94854e-05
6.949e-05
6.94872e-05
6.9492e-05
1.79877e-05
5.82901e-05
5.83012e-05
5.82871e-05
5.8298e-05
6.94895e-05
6.94847e-05
6.94915e-05
6.94867e-05
6.94851e-05
6.94901e-05
6.94865e-05
6.94915e-05
5.8286e-05
5.8296e-05
1.79723e-05
5.829e-05
5.82999e-05
6.949e-05
6.94849e-05
6.94915e-05
6.94863e-05
1.79901e-05
5.82921e-05
5.83021e-05
5.82882e-05
5.82981e-05
5.16971e-05
6.96244e-05
5.16915e-05
6.96252e-05
2.86757e-05
4.46322e-05
1.42477e-05
1.57663e-05
2.86789e-05
4.46325e-05
1.42479e-05
2.86781e-05
4.46297e-05
1.42482e-05
1.57668e-05
2.86815e-05
4.46295e-05