/*--------------------------------*- C++ -*----------------------------------*\
| =========                 |                                                 |
| \\      /  F ield         | OpenFOAM: The Open Source CFD Toolbox           |
|  \\    /   O peration     | Version:  v1912                                 |
|   \\  /    A nd           | Website:  www.openfoam.com                      |
|    \\/     M anipulation  |                                                 |
\*---------------------------------------------------------------------------*/
FoamFile
{
    version     2.0;
    format      ascii;
    class       volScalarField;
    location    "100";
    object      nut;
}
// * * * * * * * * * * * * * * * * * * * * * * * * * * * * * * * * * * * * * //

dimensions      [0 2 -1 0 0 0 0];


internalField   nonuniform List<scalar> 
57062
(
0.000145911
9.99476e-05
9.99353e-05
8.2955e-05
0.000145912
9.99481e-05
9.99382e-05
8.29496e-05
0.000145916
9.99479e-05
9.99387e-05
8.29478e-05
0.000145918
9.99468e-05
9.99391e-05
8.29485e-05
0.00014592
9.99455e-05
9.99386e-05
8.29496e-05
0.000145922
9.99445e-05
9.99378e-05
8.29513e-05
0.000145923
9.99438e-05
9.99382e-05
8.29535e-05
0.000145923
9.99461e-05
9.9938e-05
8.29565e-05
0.000145924
9.99472e-05
9.99383e-05
8.29596e-05
0.000145925
9.99468e-05
9.99378e-05
8.29621e-05
0.000145924
9.99446e-05
9.99393e-05
8.29617e-05
0.000145913
9.99515e-05
9.99426e-05
8.29617e-05
0.000145894
9.99556e-05
9.99459e-05
8.29652e-05
0.000145884
9.99504e-05
9.99467e-05
8.29681e-05
0.000145876
9.99523e-05
9.99491e-05
8.29687e-05
0.000145874
9.99546e-05
9.9943e-05
8.29741e-05
0.000145865
9.99475e-05
9.99358e-05
8.29724e-05
0.000145861
9.99376e-05
9.99292e-05
8.29718e-05
0.00014585
9.99303e-05
9.99223e-05
8.29665e-05
0.000145826
9.99175e-05
9.99061e-05
8.29545e-05
0.0001458
9.98943e-05
9.98903e-05
8.29421e-05
0.000145807
9.98728e-05
9.98615e-05
8.29231e-05
0.000145822
9.98858e-05
9.98729e-05
8.29185e-05
0.000145832
9.99053e-05
9.98929e-05
8.29276e-05
0.000145841
9.99202e-05
9.9909e-05
8.29189e-05
0.000145849
9.99358e-05
9.99251e-05
8.29204e-05
0.000145853
9.99569e-05
9.99466e-05
8.29294e-05
0.00014586
9.99896e-05
9.99791e-05
8.29436e-05
0.000145902
0.000100001
9.99907e-05
8.29666e-05
0.000148838
0.000102212
0.000102207
8.46827e-05
8.30393e-05
9.99194e-05
9.99088e-05
8.30451e-05
9.99375e-05
9.9904e-05
9.99465e-05
9.99284e-05
8.30314e-05
9.99351e-05
9.99438e-05
8.30268e-05
8.29513e-05
8.30415e-05
9.99197e-05
9.99093e-05
9.99211e-05
9.99077e-05
8.29551e-05
8.30431e-05
9.99375e-05
9.9904e-05
9.99368e-05
9.99038e-05
9.99287e-05
9.99474e-05
9.99269e-05
8.29462e-05
8.30354e-05
9.99443e-05
9.99379e-05
9.99426e-05
8.30308e-05
8.29518e-05
8.30382e-05
9.99209e-05
9.99071e-05
9.9921e-05
9.99055e-05
8.29539e-05
8.30398e-05
9.99364e-05
9.99035e-05
9.9936e-05
9.99023e-05
9.99268e-05
9.99471e-05
9.99256e-05
8.29462e-05
8.30327e-05
9.9942e-05
9.99377e-05
9.99399e-05
8.30313e-05
8.29499e-05
8.30373e-05
9.9921e-05
9.99051e-05
9.99219e-05
9.99036e-05
8.29521e-05
8.3039e-05
9.99358e-05
9.99021e-05
9.99352e-05
9.99014e-05
9.99252e-05
9.99463e-05
9.99238e-05
8.29442e-05
8.30325e-05
9.99395e-05
9.99381e-05
9.99383e-05
8.30322e-05
8.29494e-05
8.30395e-05
9.99219e-05
9.99032e-05
9.99221e-05
9.99021e-05
8.29517e-05
8.30401e-05
9.9935e-05
9.99012e-05
9.99343e-05
9.99007e-05
9.99234e-05
9.99456e-05
9.99223e-05
8.29443e-05
8.30347e-05
9.99379e-05
9.99379e-05
9.99367e-05
8.30334e-05
8.29516e-05
8.30414e-05
9.99218e-05
9.99017e-05
9.99207e-05
9.98999e-05
8.29527e-05
8.3042e-05
9.9934e-05
9.99005e-05
9.99338e-05
9.98997e-05
9.99218e-05
9.99447e-05
9.99217e-05
8.29469e-05
8.30368e-05
9.99362e-05
9.99376e-05
9.9936e-05
8.30346e-05
8.29538e-05
8.30434e-05
9.99206e-05
9.99035e-05
9.99202e-05
9.99032e-05
8.29547e-05
8.30443e-05
9.99336e-05
9.98994e-05
9.9934e-05
9.98988e-05
9.99214e-05
9.99438e-05
9.99231e-05
8.29496e-05
8.30382e-05
9.99358e-05
9.99379e-05
9.99378e-05
8.30358e-05
8.29561e-05
8.30465e-05
9.99239e-05
9.99027e-05
9.99229e-05
9.99031e-05
8.29571e-05
8.30475e-05
9.99337e-05
9.98984e-05
9.99348e-05
9.98984e-05
9.99229e-05
9.99467e-05
9.99215e-05
8.29514e-05
8.30404e-05
9.99375e-05
9.99389e-05
9.99364e-05
8.30376e-05
8.29592e-05
8.30493e-05
9.99219e-05
9.99037e-05
9.99202e-05
9.99014e-05
8.29604e-05
8.30499e-05
9.99343e-05
9.98981e-05
9.9933e-05
9.98983e-05
9.99214e-05
9.9947e-05
9.99195e-05
8.29537e-05
8.30428e-05
9.9936e-05
9.99375e-05
9.99348e-05
8.30393e-05
8.29618e-05
8.30536e-05
9.99207e-05
9.99016e-05
9.99214e-05
9.99032e-05
8.29629e-05
8.30543e-05
9.99333e-05
9.98981e-05
9.99343e-05
9.98988e-05
9.99239e-05
9.99454e-05
9.99262e-05
8.29558e-05
8.30462e-05
9.99351e-05
9.99377e-05
9.99383e-05
8.30403e-05
8.29665e-05
8.30546e-05
9.9922e-05
9.99031e-05
9.99247e-05
9.99039e-05
8.29671e-05
8.30553e-05
9.99387e-05
9.98987e-05
9.99417e-05
9.98978e-05
9.99254e-05
9.99447e-05
9.99214e-05
8.29598e-05
8.30472e-05
9.9938e-05
9.994e-05
9.99364e-05
8.30391e-05
8.2968e-05
8.30547e-05
9.99295e-05
9.9904e-05
9.99302e-05
9.99061e-05
8.29693e-05
8.30569e-05
9.99465e-05
9.99018e-05
9.99448e-05
9.99051e-05
9.99258e-05
9.99513e-05
9.99258e-05
8.29609e-05
8.30474e-05
9.99407e-05
9.99435e-05
9.99427e-05
8.3041e-05
8.29683e-05
8.3059e-05
9.9934e-05
9.99106e-05
9.9932e-05
9.99079e-05
8.29686e-05
8.30652e-05
9.99485e-05
9.99115e-05
9.99475e-05
9.99102e-05
9.99296e-05
9.99571e-05
9.9929e-05
8.29613e-05
8.30525e-05
9.99476e-05
9.99471e-05
9.99444e-05
8.30474e-05
8.29709e-05
8.30589e-05
9.99366e-05
9.99115e-05
9.99305e-05
9.99094e-05
8.29782e-05
8.30587e-05
9.99498e-05
9.99137e-05
9.99403e-05
9.99107e-05
9.99341e-05
9.99532e-05
9.99321e-05
8.29645e-05
8.30537e-05
9.99477e-05
9.99467e-05
9.9945e-05
8.30512e-05
8.29704e-05
8.3062e-05
9.99314e-05
9.99128e-05
9.9927e-05
9.99074e-05
8.2975e-05
8.30567e-05
9.9942e-05
9.99123e-05
9.99401e-05
9.991e-05
9.99352e-05
9.99515e-05
9.99333e-05
8.29663e-05
8.30562e-05
9.99467e-05
9.99496e-05
9.99427e-05
8.30538e-05
8.29716e-05
8.30633e-05
9.99305e-05
9.99122e-05
9.99272e-05
9.99128e-05
8.29678e-05
8.30682e-05
9.99449e-05
9.99152e-05
9.99417e-05
9.9908e-05
9.99374e-05
9.99559e-05
9.99338e-05
8.29664e-05
8.30589e-05
9.9946e-05
9.99464e-05
9.99448e-05
8.30594e-05
8.29746e-05
8.30585e-05
9.99309e-05
9.99172e-05
9.99239e-05
9.99057e-05
8.29751e-05
8.307e-05
9.9946e-05
9.99102e-05
9.99374e-05
9.99014e-05
9.9937e-05
9.99508e-05
9.99254e-05
8.29689e-05
8.30534e-05
9.99487e-05
9.99378e-05
9.99402e-05
8.30559e-05
8.29715e-05
8.30567e-05
9.99279e-05
9.99078e-05
9.99211e-05
9.98968e-05
8.29781e-05
8.30635e-05
9.99406e-05
9.99033e-05
9.99328e-05
9.9899e-05
9.99287e-05
9.99407e-05
9.99174e-05
8.29668e-05
8.30494e-05
9.99439e-05
9.99309e-05
9.99334e-05
8.30531e-05
8.29691e-05
8.30573e-05
9.99235e-05
9.99001e-05
9.9917e-05
9.98905e-05
8.29766e-05
8.30563e-05
9.99351e-05
9.99036e-05
9.99309e-05
9.98963e-05
9.99205e-05
9.99328e-05
9.99096e-05
8.29653e-05
8.3045e-05
9.9936e-05
9.99254e-05
9.99236e-05
8.30469e-05
8.29702e-05
8.30457e-05
9.9918e-05
9.98924e-05
9.98893e-05
9.98672e-05
8.29717e-05
8.30454e-05
9.99338e-05
9.98979e-05
9.99083e-05
9.98691e-05
9.99086e-05
9.99208e-05
9.98861e-05
8.29609e-05
8.3036e-05
9.99233e-05
9.99096e-05
9.99008e-05
8.30354e-05
8.29581e-05
8.30342e-05
9.98857e-05
9.98641e-05
9.98709e-05
9.98497e-05
8.29596e-05
8.30377e-05
9.99043e-05
9.98648e-05
9.98882e-05
9.9848e-05
9.98838e-05
9.99029e-05
9.98694e-05
8.2951e-05
8.30249e-05
9.98982e-05
9.98969e-05
9.98847e-05
8.30238e-05
8.2948e-05
8.30208e-05
9.98662e-05
9.98442e-05
9.9845e-05
9.98234e-05
8.2952e-05
8.3018e-05
9.98835e-05
9.98436e-05
9.98602e-05
9.98196e-05
9.98637e-05
9.98718e-05
9.98419e-05
8.29422e-05
8.30066e-05
9.98795e-05
9.98615e-05
9.98567e-05
8.30077e-05
8.29356e-05
8.30068e-05
9.98456e-05
9.98241e-05
9.98524e-05
9.9831e-05
8.29351e-05
8.30056e-05
9.98605e-05
9.98195e-05
9.98665e-05
9.98248e-05
9.98425e-05
9.9882e-05
9.98491e-05
8.29248e-05
8.29936e-05
9.98571e-05
9.98692e-05
9.98636e-05
8.30014e-05
8.29249e-05
8.30174e-05
9.98541e-05
9.98326e-05
9.98658e-05
9.98436e-05
8.29265e-05
8.30167e-05
9.98682e-05
9.98264e-05
9.98797e-05
9.98383e-05
9.98506e-05
9.99012e-05
9.98615e-05
8.29125e-05
8.30082e-05
9.98652e-05
9.98885e-05
9.98763e-05
8.30089e-05
8.29352e-05
8.30136e-05
9.98683e-05
9.98462e-05
9.9879e-05
9.98564e-05
8.29355e-05
8.30113e-05
9.98821e-05
9.98409e-05
9.98928e-05
9.98515e-05
9.9864e-05
9.9917e-05
9.9874e-05
8.29259e-05
8.3006e-05
9.98789e-05
9.99056e-05
9.9889e-05
8.29976e-05
8.29295e-05
8.30226e-05
9.98835e-05
9.9861e-05
9.9895e-05
9.98731e-05
8.29299e-05
8.30181e-05
9.9897e-05
9.98559e-05
9.99087e-05
9.98682e-05
9.98791e-05
9.99318e-05
9.98906e-05
8.29221e-05
8.30154e-05
9.98938e-05
9.9921e-05
9.99054e-05
8.30047e-05
8.29355e-05
8.30286e-05
9.9901e-05
9.988e-05
9.99154e-05
9.98952e-05
8.29314e-05
8.30274e-05
9.99148e-05
9.98748e-05
9.99292e-05
9.98903e-05
9.9898e-05
9.99511e-05
9.99139e-05
8.29286e-05
8.30223e-05
9.99128e-05
9.99407e-05
9.99286e-05
8.30186e-05
8.29408e-05
8.30367e-05
9.99238e-05
9.99043e-05
9.99459e-05
9.99271e-05
8.2939e-05
8.30355e-05
9.9938e-05
9.98995e-05
9.99597e-05
9.99219e-05
9.99235e-05
9.99808e-05
9.9947e-05
8.2935e-05
8.30301e-05
9.99382e-05
9.99703e-05
9.99623e-05
8.30345e-05
8.29478e-05
8.30555e-05
9.99555e-05
9.99378e-05
0.000100017
9.99997e-05
8.29451e-05
8.30582e-05
9.99691e-05
9.99321e-05
0.000100032
9.99951e-05
9.99579e-05
0.00010005
0.000100017
8.2941e-05
8.3051e-05
9.99723e-05
0.000100041
0.000100035
8.30566e-05
8.29675e-05
8.38083e-05
9.99683e-05
9.99513e-05
0.000101628
0.000101612
8.29642e-05
8.38116e-05
9.9984e-05
9.99456e-05
0.00010164
0.000101611
9.99676e-05
0.000101654
0.000101629
8.29616e-05
8.38048e-05
9.99866e-05
0.000101648
0.000101643
8.38098e-05
8.46847e-05
0.00010219
0.000102175
8.46849e-05
0.000102201
0.000102175
0.000148834
0.000148836
0.000148838
0.000102191
8.46797e-05
0.000102204
0.000145911
0.000145917
0.000145903
0.000145916
6.82531e-05
4.94086e-05
6.82455e-05
4.94087e-05
2.3604e-05
2.36047e-05
6.82655e-05
4.94056e-05
6.82585e-05
4.94057e-05
0.00014592
0.000145903
0.000145919
0.000145913
0.000145918
0.0001459
0.000145918
6.71179e-05
6.56988e-05
0.00012288
9.99481e-05
6.7112e-05
6.571e-05
0.000122882
2.36019e-05
2.36026e-05
6.71305e-05
0.000122881
6.57029e-05
9.99364e-05
6.71235e-05
0.000122883
6.5715e-05
6.06264e-05
6.06268e-05
8.30291e-05
6.06312e-05
6.06315e-05
6.82562e-05
4.9408e-05
6.82448e-05
4.94082e-05
2.36036e-05
2.36044e-05
6.82627e-05
4.9405e-05
6.82535e-05
4.94052e-05
0.000145925
0.000145906
0.000145924
0.000145916
0.000145921
0.000145904
0.00014592
6.71355e-05
6.57068e-05
0.000122877
9.99479e-05
6.71305e-05
6.57167e-05
0.000122878
2.36014e-05
2.36023e-05
6.715e-05
0.000122878
6.57141e-05
9.99381e-05
6.71443e-05
0.00012288
6.57242e-05
6.06271e-05
6.06275e-05
8.30254e-05
6.06321e-05
6.06324e-05
6.82607e-05
4.94077e-05
6.82506e-05
4.94079e-05
2.36033e-05
2.36042e-05
6.82673e-05
4.94047e-05
6.82564e-05
4.94049e-05
0.000145928
0.00014591
0.000145928
0.000145919
0.000145924
0.000145907
0.000145922
6.71509e-05
6.57129e-05
0.000122874
9.99476e-05
6.71462e-05
6.57221e-05
0.000122876
2.36012e-05
2.36021e-05
6.71634e-05
0.000122875
6.57221e-05
9.99386e-05
6.71599e-05
0.000122876
6.57316e-05
6.06294e-05
6.063e-05
8.30246e-05
6.06362e-05
6.06361e-05
6.82755e-05
4.94076e-05
6.8257e-05
4.9408e-05
2.36033e-05
2.36042e-05
6.82747e-05
4.94046e-05
6.82641e-05
4.94049e-05
0.00014593
0.000145912
0.000145929
0.00014592
0.000145922
0.000145906
0.000145921
6.71652e-05
6.57173e-05
0.000122874
9.99468e-05
6.71615e-05
6.57265e-05
0.000122876
2.36011e-05
2.36021e-05
6.71753e-05
0.000122873
6.57287e-05
9.99389e-05
6.71725e-05
0.000122875
6.57377e-05
6.06347e-05
6.06342e-05
8.30255e-05
6.06414e-05
6.06406e-05
6.82767e-05
4.94078e-05
6.82665e-05
4.94082e-05
2.36033e-05
2.36043e-05
6.82874e-05
4.94047e-05
6.82738e-05
4.94051e-05
0.000145925
0.000145911
0.000145924
0.000145922
0.00014592
0.000145908
0.000145918
6.7179e-05
6.57228e-05
0.000122876
9.99456e-05
6.71757e-05
6.5732e-05
0.000122879
2.36012e-05
2.36022e-05
6.71874e-05
0.000122874
6.57337e-05
9.99385e-05
6.7185e-05
0.000122876
6.57423e-05
6.06391e-05
6.0639e-05
8.30284e-05
6.06457e-05
6.06454e-05
6.82867e-05
4.94081e-05
6.82747e-05
4.94085e-05
2.36035e-05
2.36044e-05
6.8292e-05
4.9405e-05
6.82817e-05
4.94054e-05
0.000145926
0.000145913
0.000145924
0.000145924
0.000145919
0.000145907
0.000145919
6.71954e-05
6.57278e-05
0.000122875
9.99449e-05
6.71918e-05
6.57368e-05
0.000122877
2.36014e-05
2.36024e-05
6.71978e-05
0.000122874
6.57375e-05
9.99384e-05
6.71959e-05
0.000122877
6.5746e-05
6.06433e-05
6.06439e-05
8.30322e-05
6.06495e-05
6.06501e-05
6.82947e-05
4.94084e-05
6.82831e-05
4.94089e-05
2.36036e-05
2.36046e-05
6.82971e-05
4.94054e-05
6.82875e-05
4.94058e-05
0.000145924
0.000145913
0.000145926
0.000145925
0.000145919
0.000145908
0.00014592
6.72087e-05
6.57314e-05
0.000122873
9.99471e-05
6.72063e-05
6.57402e-05
0.000122876
2.36015e-05
2.36025e-05
6.72074e-05
0.000122875
6.57408e-05
9.99412e-05
6.72051e-05
0.000122878
6.57491e-05
6.0646e-05
6.06467e-05
8.30373e-05
6.06507e-05
6.06512e-05
6.82994e-05
4.94088e-05
6.82899e-05
4.94093e-05
2.36038e-05
2.36047e-05
6.8301e-05
4.94057e-05
6.82916e-05
4.94061e-05
0.000145925
0.000145915
0.000145927
0.000145925
0.00014592
0.000145909
0.000145921
6.7217e-05
6.5734e-05
0.000122873
9.99459e-05
6.72157e-05
6.57427e-05
0.000122876
2.36016e-05
2.36026e-05
6.72179e-05
0.000122875
6.57432e-05
9.99375e-05
6.72164e-05
0.000122877
6.57514e-05
6.06472e-05
6.0648e-05
8.30416e-05
6.06519e-05
6.06527e-05
6.82966e-05
4.94092e-05
6.82876e-05
4.94096e-05
2.36039e-05
2.36048e-05
6.83042e-05
4.9406e-05
6.82949e-05
4.94064e-05
0.000145927
0.000145916
0.000145928
0.000145926
0.000145922
0.000145911
0.000145922
6.7222e-05
6.57362e-05
0.000122874
9.99467e-05
6.72216e-05
6.57448e-05
0.000122877
2.36017e-05
2.36027e-05
6.72239e-05
0.000122875
6.57449e-05
9.99387e-05
6.72236e-05
0.000122878
6.57529e-05
6.06477e-05
6.06487e-05
8.30479e-05
6.06524e-05
6.06532e-05
6.82996e-05
4.94094e-05
6.82897e-05
4.94098e-05
2.3604e-05
2.36049e-05
6.83097e-05
4.94062e-05
6.83003e-05
4.94066e-05
0.000145929
0.000145917
0.000145929
0.000145926
0.000145924
0.000145911
0.000145922
6.72283e-05
6.57382e-05
0.000122876
9.99472e-05
6.72277e-05
6.57468e-05
0.000122879
2.36018e-05
2.36028e-05
6.72266e-05
0.000122877
6.57459e-05
9.99383e-05
6.7228e-05
0.00012288
6.57539e-05
6.06478e-05
6.06488e-05
8.30544e-05
6.06524e-05
6.06532e-05
6.82995e-05
4.94096e-05
6.82901e-05
4.94099e-05
2.36041e-05
2.3605e-05
6.83056e-05
4.94064e-05
6.82969e-05
4.94067e-05
0.00014593
0.000145916
0.00014592
0.000145919
0.000145924
0.000145909
0.000145904
6.72317e-05
6.574e-05
0.000122876
9.99488e-05
6.72318e-05
6.57483e-05
0.000122878
2.36018e-05
2.36028e-05
6.72276e-05
0.000122879
6.57468e-05
9.99431e-05
6.72282e-05
0.000122881
6.57546e-05
6.06476e-05
6.06486e-05
8.30601e-05
6.06519e-05
6.0653e-05
6.83003e-05
4.94096e-05
6.8291e-05
4.941e-05
2.36042e-05
2.36051e-05
6.83067e-05
4.94064e-05
6.82975e-05
4.94067e-05
0.00014592
0.00014591
0.000145904
0.000145898
0.000145898
0.000145898
0.000145895
6.72344e-05
6.5741e-05
0.000122877
9.99556e-05
6.72348e-05
6.57488e-05
0.000122879
2.36019e-05
2.36029e-05
6.72289e-05
0.00012288
6.57471e-05
9.99462e-05
6.72305e-05
0.000122882
6.57546e-05
6.06471e-05
6.06486e-05
8.30621e-05
6.06517e-05
6.06531e-05
6.82995e-05
4.94096e-05
6.82901e-05
4.941e-05
2.36043e-05
2.36052e-05
6.83123e-05
4.94064e-05
6.83017e-05
4.94068e-05
0.00014589
0.000145894
0.000145891
0.000145885
0.000145868
0.000145887
0.000145878
6.72363e-05
6.57411e-05
0.000122878
9.9958e-05
6.72371e-05
6.57487e-05
0.000122879
2.3602e-05
2.3603e-05
6.72299e-05
0.000122882
6.57471e-05
9.99493e-05
6.72309e-05
0.000122882
6.57545e-05
6.06472e-05
6.06483e-05
8.30615e-05
6.06518e-05
6.06526e-05
6.82995e-05
4.94096e-05
6.8292e-05
4.941e-05
2.36043e-05
2.36052e-05
6.83099e-05
4.94064e-05
6.83012e-05
4.94068e-05
0.00014587
0.000145889
0.000145875
0.000145878
0.000145874
0.00014589
0.000145875
6.72376e-05
6.57406e-05
0.000122864
9.99512e-05
6.72386e-05
6.57481e-05
0.000122863
2.3602e-05
2.3603e-05
6.72301e-05
0.000122868
6.57468e-05
9.99492e-05
6.7232e-05
0.000122867
6.57542e-05
6.06467e-05
6.06472e-05
8.30632e-05
6.06511e-05
6.06513e-05
6.82976e-05
4.94096e-05
6.82917e-05
4.941e-05
2.36043e-05
2.36053e-05
6.83102e-05
4.94064e-05
6.83017e-05
4.94068e-05
0.000145878
0.000145888
0.000145876
0.000145878
0.000145876
0.000145871
0.000145867
6.72382e-05
6.57399e-05
0.000122854
9.99567e-05
6.72395e-05
6.57474e-05
0.000122854
2.36021e-05
2.36031e-05
6.72293e-05
0.000122855
6.57462e-05
9.99517e-05
6.72313e-05
0.000122855
6.57534e-05
6.06464e-05
6.06462e-05
8.30611e-05
6.0651e-05
6.06507e-05
6.82961e-05
4.94096e-05
6.82905e-05
4.941e-05
2.36043e-05
2.36053e-05
6.83081e-05
4.94064e-05
6.82997e-05
4.94067e-05
0.000145874
0.00014587
0.000145866
0.000145866
0.000145862
0.000145862
0.000145857
6.72385e-05
6.57392e-05
0.000122843
9.99569e-05
6.724e-05
6.57466e-05
0.000122845
2.36021e-05
2.3603e-05
6.72293e-05
0.000122842
6.57455e-05
9.99411e-05
6.72307e-05
0.000122844
6.57529e-05
6.06464e-05
6.06464e-05
8.30575e-05
6.06509e-05
6.06509e-05
6.82946e-05
4.94096e-05
6.82891e-05
4.941e-05
2.36044e-05
2.36053e-05
6.83069e-05
4.94064e-05
6.82984e-05
4.94067e-05
0.000145861
0.000145867
0.000145857
0.000145862
0.000145858
0.000145867
0.000145852
6.72379e-05
6.57385e-05
0.000122834
9.99474e-05
6.72398e-05
6.5746e-05
0.000122837
2.3602e-05
2.3603e-05
6.72284e-05
0.000122837
6.57453e-05
9.99372e-05
6.72307e-05
0.00012284
6.57527e-05
6.06461e-05
6.06471e-05
8.30521e-05
6.06516e-05
6.06522e-05
6.82951e-05
4.94096e-05
6.82877e-05
4.941e-05
2.36043e-05
2.36053e-05
6.83052e-05
4.94064e-05
6.82981e-05
4.94066e-05
0.000145858
0.000145866
0.000145852
0.000145854
0.000145849
0.000145845
0.000145844
6.72362e-05
6.57383e-05
0.000122832
9.99364e-05
6.72384e-05
6.57459e-05
0.000122834
2.3602e-05
2.3603e-05
6.72255e-05
0.000122835
6.57451e-05
9.99303e-05
6.72284e-05
0.000122836
6.57524e-05
6.0648e-05
6.06489e-05
8.30462e-05
6.06553e-05
6.06549e-05
6.8294e-05
4.94097e-05
6.82853e-05
4.94102e-05
2.36043e-05
2.36053e-05
6.83073e-05
4.94064e-05
6.82983e-05
4.94068e-05
0.000145845
0.00014584
0.000145841
0.000145831
0.000145826
0.000145816
0.000145821
6.72352e-05
6.57391e-05
0.000122823
9.99293e-05
6.72372e-05
6.5747e-05
0.000122822
2.3602e-05
2.36031e-05
6.72231e-05
0.000122823
6.57456e-05
9.99208e-05
6.72257e-05
0.000122821
6.57533e-05
6.06541e-05
6.06526e-05
8.3038e-05
6.06617e-05
6.066e-05
6.82991e-05
4.94098e-05
6.82881e-05
4.94102e-05
2.36042e-05
2.36054e-05
6.83146e-05
4.94065e-05
6.83022e-05
4.9407e-05
0.000145824
0.000145814
0.000145819
0.000145816
0.000145811
0.000145803
0.000145807
6.72335e-05
6.57413e-05
0.000122806
9.99171e-05
6.72361e-05
6.57492e-05
0.000122808
2.36019e-05
2.36031e-05
6.72211e-05
0.000122805
6.57479e-05
9.99057e-05
6.72237e-05
0.000122806
6.5756e-05
6.0659e-05
6.06591e-05
8.30265e-05
6.06629e-05
6.06635e-05
6.82974e-05
4.94097e-05
6.82905e-05
4.94103e-05
2.36042e-05
2.36054e-05
6.83138e-05
4.94065e-05
6.83058e-05
4.94071e-05
0.000145797
0.000145792
0.000145794
0.000145798
0.000145793
0.000145777
0.000145784
6.723e-05
6.57437e-05
0.000122781
9.98809e-05
6.72335e-05
6.57508e-05
0.000122773
2.36019e-05
2.36032e-05
6.72188e-05
0.000122789
6.57509e-05
9.98787e-05
6.72219e-05
0.000122777
6.57579e-05
6.06596e-05
6.0661e-05
8.30084e-05
6.06603e-05
6.06618e-05
6.82944e-05
4.94098e-05
6.82899e-05
4.94107e-05
2.36041e-05
2.36056e-05
6.83103e-05
4.94066e-05
6.83051e-05
4.94074e-05
0.000145803
0.000145788
0.000145794
0.000145822
0.000145814
0.000145801
0.000145805
6.72268e-05
6.57457e-05
0.000122781
9.98776e-05
6.72301e-05
6.57521e-05
0.000122792
2.36017e-05
2.36032e-05
6.72146e-05
0.000122778
6.57532e-05
9.98654e-05
6.72184e-05
0.00012279
6.57595e-05
6.06584e-05
6.06601e-05
8.2991e-05
6.06596e-05
6.06609e-05
6.82858e-05
4.94101e-05
6.8286e-05
4.94114e-05
2.3604e-05
2.36059e-05
6.83044e-05
4.94069e-05
6.83016e-05
4.94082e-05
0.000145821
0.000145808
0.000145812
0.000145831
0.000145827
0.000145813
0.000145817
6.72238e-05
6.57492e-05
0.000122801
9.98921e-05
6.72273e-05
6.57544e-05
0.000122807
2.36015e-05
2.36034e-05
6.72103e-05
0.000122801
6.57572e-05
9.98791e-05
6.72144e-05
0.000122808
6.57624e-05
6.06622e-05
6.06632e-05
8.29973e-05
6.06632e-05
6.06642e-05
6.82788e-05
4.94108e-05
6.82795e-05
4.94128e-05
2.36038e-05
2.36064e-05
6.82954e-05
4.94076e-05
6.82952e-05
4.94096e-05
0.000145833
0.000145819
0.000145823
0.000145841
0.000145833
0.00014582
0.000145824
6.72196e-05
6.57562e-05
0.000122813
9.99118e-05
6.72246e-05
6.57596e-05
0.000122817
2.36014e-05
2.3604e-05
6.72062e-05
0.000122814
6.57646e-05
9.98997e-05
6.72109e-05
0.000122819
6.57677e-05
6.06719e-05
6.06732e-05
8.30093e-05
6.06688e-05
6.06701e-05
6.82718e-05
4.94118e-05
6.82719e-05
4.94149e-05
2.36035e-05
2.36071e-05
6.82855e-05
4.94085e-05
6.82882e-05
4.94116e-05
0.000145839
0.000145827
0.00014583
0.000145848
0.000145843
0.000145831
0.000145832
6.72158e-05
6.57691e-05
0.000122822
9.99262e-05
6.72215e-05
6.57683e-05
0.000122828
2.36011e-05
2.36048e-05
6.72034e-05
0.000122824
6.57769e-05
9.99151e-05
6.72085e-05
0.00012283
6.57754e-05
6.06764e-05
6.06777e-05
8.30223e-05
6.06619e-05
6.06632e-05
6.82654e-05
4.94126e-05
6.82646e-05
4.94171e-05
2.36029e-05
2.36079e-05
6.82783e-05
4.94094e-05
6.82794e-05
4.9414e-05
0.000145851
0.000145839
0.000145838
0.000145853
0.000145851
0.000145842
0.000145846
6.72139e-05
6.57893e-05
0.000122835
9.99426e-05
6.72215e-05
6.57769e-05
0.00012284
2.36006e-05
2.36058e-05
6.72028e-05
0.000122837
6.57956e-05
9.9932e-05
6.721e-05
0.000122842
6.57812e-05
6.06665e-05
6.06678e-05
8.30248e-05
6.06357e-05
6.06372e-05
6.82649e-05
4.94115e-05
6.82599e-05
4.94181e-05
2.36015e-05
2.36088e-05
6.82798e-05
4.94087e-05
6.82763e-05
4.94152e-05
0.000145854
0.000145846
0.000145854
0.000145859
0.000145854
0.000145844
0.000145857
6.72128e-05
6.58015e-05
0.00012285
9.99659e-05
6.72256e-05
6.57582e-05
0.000122857
2.35995e-05
2.36068e-05
6.7203e-05
0.000122852
6.58034e-05
9.99556e-05
6.72153e-05
0.000122858
6.57584e-05
6.06388e-05
6.06402e-05
8.30275e-05
6.05838e-05
6.05853e-05
6.82482e-05
4.94068e-05
6.82437e-05
4.94179e-05
2.35991e-05
2.36094e-05
6.82598e-05
4.9404e-05
6.8257e-05
4.94151e-05
0.000145862
0.000145852
0.000145863
0.000145901
0.0001459
0.000145891
0.000145897
6.72094e-05
6.57883e-05
0.000122871
0.000100005
6.72345e-05
6.56947e-05
0.000122876
2.35972e-05
2.36076e-05
6.72005e-05
0.000122872
6.57866e-05
9.99953e-05
6.72252e-05
0.000122876
6.56921e-05
6.0586e-05
6.05875e-05
8.30329e-05
6.0492e-05
6.04936e-05
6.82462e-05
4.94002e-05
6.82128e-05
4.94399e-05
2.3597e-05
2.36197e-05
6.82533e-05
4.93969e-05
6.82213e-05
4.94372e-05
0.000145909
0.000145901
0.000145905
0.000146691
0.00014669
0.000146687
0.000146691
6.71687e-05
6.57473e-05
0.000123032
0.000100263
6.7246e-05
6.55882e-05
0.000122758
2.35951e-05
2.3618e-05
6.71609e-05
0.000123034
6.57441e-05
0.000100255
6.7238e-05
0.000122761
6.55854e-05
6.04897e-05
6.04915e-05
8.32106e-05
6.03364e-05
6.03395e-05
6.79051e-05
5.31248e-05
6.8333e-05
9.28282e-05
2.65337e-05
4.11544e-05
6.791e-05
5.31213e-05
6.83375e-05
9.2823e-05
0.000188774
0.000170275
0.000170284
0.000144552
0.000188159
0.000168317
0.000168325
6.65993e-05
6.59641e-05
0.000126045
0.000104181
6.68202e-05
7.29003e-05
0.000129534
2.65323e-05
4.11561e-05
6.6592e-05
0.000126048
6.59615e-05
0.000104177
6.6813e-05
0.000129538
7.28978e-05
6.09482e-05
6.09479e-05
8.68059e-05
6.3164e-05
6.31679e-05
2.36058e-05
2.36044e-05
6.06302e-05
6.06295e-05
4.9409e-05
6.82531e-05
4.94095e-05
4.94093e-05
6.8255e-05
6.57128e-05
0.000122883
6.71132e-05
9.99088e-05
6.57016e-05
0.000122874
6.56878e-05
6.7119e-05
2.3605e-05
2.36043e-05
8.29367e-05
6.06318e-05
6.0624e-05
6.06244e-05
6.06156e-05
2.36053e-05
2.36047e-05
4.94061e-05
6.82658e-05
6.57133e-05
0.00012288
6.71215e-05
4.94019e-05
6.8262e-05
0.000122872
6.57051e-05
6.71214e-05
6.70992e-05
9.99466e-05
6.5706e-05
0.000122881
6.56868e-05
0.00012288
6.71088e-05
6.8255e-05
4.94081e-05
4.94079e-05
6.82645e-05
6.7101e-05
9.99285e-05
0.000122881
6.57009e-05
0.000122881
6.56842e-05
6.71104e-05
6.82538e-05
4.94047e-05
4.94045e-05
6.82642e-05
2.36029e-05
6.06217e-05
6.06278e-05
2.36048e-05
0.000122881
6.57095e-05
6.71198e-05
9.9944e-05
0.000122885
6.57011e-05
6.56841e-05
6.71216e-05
4.94046e-05
6.82545e-05
4.94051e-05
4.94049e-05
6.82604e-05
8.2917e-05
6.06308e-05
6.06313e-05
6.06228e-05
6.06236e-05
2.36043e-05
2.36036e-05
2.36037e-05
2.3603e-05
2.36049e-05
2.36056e-05
2.36034e-05
2.36041e-05
6.06234e-05
6.06226e-05
8.30248e-05
6.06299e-05
6.06295e-05
2.36053e-05
2.36046e-05
2.36039e-05
2.36031e-05
8.29358e-05
6.06304e-05
6.06303e-05
6.06236e-05
6.06233e-05
6.82488e-05
4.9409e-05
6.82402e-05
4.94092e-05
6.71245e-05
6.57042e-05
0.000122883
9.99213e-05
6.71139e-05
6.57198e-05
0.000122883
6.71294e-05
6.56925e-05
0.000122874
9.99105e-05
6.71195e-05
6.57063e-05
0.000122874
6.8239e-05
4.94084e-05
4.94082e-05
6.8251e-05
6.82356e-05
4.94089e-05
4.94087e-05
6.8251e-05
6.71227e-05
9.99204e-05
6.57249e-05
0.00012288
6.57097e-05
0.000122881
6.71322e-05
6.71275e-05
9.99079e-05
6.57108e-05
0.000122871
6.56966e-05
0.000122872
6.71368e-05
6.0625e-05
6.06164e-05
8.30286e-05
6.06309e-05
6.06228e-05
2.36043e-05
2.36051e-05
2.36046e-05
2.36038e-05
8.29381e-05
6.06307e-05
6.06228e-05
6.06242e-05
6.06156e-05
2.36049e-05
2.36041e-05
6.71331e-05
6.57048e-05
0.00012288
9.99383e-05
6.71221e-05
6.57205e-05
0.000122879
6.82572e-05
4.94014e-05
6.82486e-05
4.94015e-05
6.71329e-05
0.000122872
6.56967e-05
9.99048e-05
6.71221e-05
0.000122871
6.57122e-05
6.82517e-05
4.94054e-05
4.94052e-05
6.82601e-05
6.71311e-05
9.99368e-05
6.57254e-05
0.000122876
6.57109e-05
0.000122878
6.71405e-05
6.82444e-05
4.94013e-05
4.94011e-05
6.82557e-05
6.71311e-05
9.99033e-05
0.000122867
6.57167e-05
0.000122868
6.57023e-05
6.71407e-05
6.82613e-05
4.94076e-05
6.82513e-05
4.94078e-05
6.712e-05
0.000122882
6.56918e-05
9.99292e-05
6.71089e-05
0.000122881
6.57075e-05
6.82607e-05
4.94042e-05
6.82515e-05
4.94044e-05
6.71164e-05
9.99476e-05
6.57144e-05
0.000122877
6.57e-05
0.000122879
6.71275e-05
6.82482e-05
4.94075e-05
4.94073e-05
6.82602e-05
6.71183e-05
9.9927e-05
0.000122878
6.57131e-05
0.000122879
6.56977e-05
6.71288e-05
6.82471e-05
4.94041e-05
4.94039e-05
6.8258e-05
6.06144e-05
6.06209e-05
8.30258e-05
6.0621e-05
6.06273e-05
2.36038e-05
2.36044e-05
2.36024e-05
2.36016e-05
8.29353e-05
6.06209e-05
6.06277e-05
6.06139e-05
6.0621e-05
2.36042e-05
2.36035e-05
6.71322e-05
0.000122885
6.56921e-05
9.99454e-05
6.7122e-05
0.000122886
6.57078e-05
6.82493e-05
4.94041e-05
6.82401e-05
4.94043e-05
6.82542e-05
4.94046e-05
6.82465e-05
4.94048e-05
6.71289e-05
9.99374e-05
0.00012288
6.57211e-05
0.000122881
6.57058e-05
6.71411e-05
6.71303e-05
9.99431e-05
0.000122882
6.57134e-05
0.000122883
6.56983e-05
6.71399e-05
6.8236e-05
4.9404e-05
4.94038e-05
6.82508e-05
6.82418e-05
4.94045e-05
4.94043e-05
6.82544e-05
2.36033e-05
2.3604e-05
2.36027e-05
2.36035e-05
8.29292e-05
6.06313e-05
6.06316e-05
6.06249e-05
6.0625e-05
2.36039e-05
2.36031e-05
2.36033e-05
2.36025e-05
2.36044e-05
2.36051e-05
2.36029e-05
2.36037e-05
6.06241e-05
6.0624e-05
8.30212e-05
6.06308e-05
6.06307e-05
2.3605e-05
2.36042e-05
2.36035e-05
2.36027e-05
8.29303e-05
6.06321e-05
6.06316e-05
6.06246e-05
6.06244e-05
6.82565e-05
4.94084e-05
6.82412e-05
4.94086e-05
6.71408e-05
6.57144e-05
0.000122881
9.99218e-05
6.71305e-05
6.57287e-05
0.000122881
6.71448e-05
6.57008e-05
0.000122873
9.99074e-05
6.71351e-05
6.57146e-05
0.000122873
6.82432e-05
4.9408e-05
4.94078e-05
6.82572e-05
6.82438e-05
4.94084e-05
4.94081e-05
6.82574e-05
6.71391e-05
9.99201e-05
6.57318e-05
0.00012288
6.5718e-05
0.00012288
6.71485e-05
6.71431e-05
9.99054e-05
6.57181e-05
0.000122872
6.57048e-05
0.000122872
6.71519e-05
6.06242e-05
6.0616e-05
8.30263e-05
6.06306e-05
6.0625e-05
2.3604e-05
2.36048e-05
2.36043e-05
2.36035e-05
8.29346e-05
6.06311e-05
6.06268e-05
6.06242e-05
6.06187e-05
2.36048e-05
2.36039e-05
6.71484e-05
6.57151e-05
0.000122877
9.9937e-05
6.71386e-05
6.57285e-05
0.000122876
6.82598e-05
4.94009e-05
6.82444e-05
4.94011e-05
6.71492e-05
0.000122868
6.57064e-05
9.99039e-05
6.7139e-05
0.000122868
6.57201e-05
6.82504e-05
4.9405e-05
4.94048e-05
6.82627e-05
6.71465e-05
9.99352e-05
6.57309e-05
0.000122874
6.5718e-05
0.000122875
6.71558e-05
6.82485e-05
4.9401e-05
4.94007e-05
6.826e-05
6.71475e-05
9.99019e-05
0.000122866
6.57229e-05
0.000122867
6.57095e-05
6.71568e-05
6.82605e-05
4.94071e-05
6.82489e-05
4.94073e-05
6.71373e-05
0.000122879
6.57028e-05
9.99273e-05
6.71272e-05
0.000122879
6.57173e-05
6.82585e-05
4.94037e-05
6.82466e-05
4.94039e-05
6.71338e-05
9.99473e-05
6.57206e-05
0.000122875
6.57067e-05
0.000122876
6.71435e-05
6.82471e-05
4.94072e-05
4.94069e-05
6.82585e-05
6.71355e-05
9.99255e-05
0.000122876
6.5721e-05
0.000122877
6.57069e-05
6.71448e-05
6.82455e-05
4.94038e-05
4.94035e-05
6.82576e-05
6.0614e-05
6.06214e-05
8.30222e-05
6.06221e-05
6.06284e-05
2.36033e-05
2.3604e-05
2.36022e-05
2.36013e-05
8.29311e-05
6.06241e-05
6.06305e-05
6.06155e-05
6.06224e-05
2.36039e-05
2.36031e-05
6.71483e-05
0.000122883
6.5704e-05
9.99421e-05
6.71381e-05
0.000122883
6.5718e-05
6.82556e-05
4.94035e-05
6.82407e-05
4.94037e-05
6.82612e-05
4.94041e-05
6.82444e-05
4.94043e-05
6.71481e-05
9.99375e-05
0.000122876
6.57293e-05
0.000122877
6.57148e-05
6.71576e-05
6.71466e-05
9.99399e-05
0.000122881
6.57218e-05
0.000122882
6.57082e-05
6.71557e-05
6.82423e-05
4.94036e-05
4.94033e-05
6.82534e-05
6.82499e-05
4.94042e-05
4.94039e-05
6.82609e-05
2.36029e-05
2.36037e-05
2.36024e-05
2.36032e-05
8.29261e-05
6.06333e-05
6.06339e-05
6.06259e-05
6.06263e-05
2.36036e-05
2.36028e-05
2.36031e-05
2.36023e-05
2.36041e-05
2.3605e-05
2.36026e-05
2.36035e-05
6.06262e-05
6.06256e-05
8.30222e-05
6.06352e-05
6.06344e-05
2.36049e-05
2.36041e-05
2.36035e-05
2.36026e-05
8.29314e-05
6.06378e-05
6.0637e-05
6.06295e-05
6.06286e-05
6.82615e-05
4.94079e-05
6.82462e-05
4.94082e-05
6.71561e-05
6.5721e-05
0.00012288
9.99219e-05
6.71468e-05
6.57347e-05
0.00012288
6.71589e-05
6.57083e-05
0.000122874
9.9905e-05
6.71501e-05
6.57216e-05
0.000122873
6.82476e-05