/*--------------------------------*- C++ -*----------------------------------*\
| =========                 |                                                 |
| \\      /  F ield         | OpenFOAM: The Open Source CFD Toolbox           |
|  \\    /   O peration     | Version:  v1912                                 |
|   \\  /    A nd           | Website:  www.openfoam.com                      |
|    \\/     M anipulation  |                                                 |
\*---------------------------------------------------------------------------*/
FoamFile
{
    version     2.0;
    format      ascii;
    class       volScalarField;
    location    "100";
    object      p;
}
// * * * * * * * * * * * * * * * * * * * * * * * * * * * * * * * * * * * * * //

dimensions      [0 2 -2 0 0 0 0];


internalField   nonuniform List<scalar> 
57062
(
0.0010477
0.00104763
0.00104763
0.00104976
0.00101149
0.00101142
0.00101142
0.00101354
0.000975276
0.000975208
0.000975208
0.00097733
0.000939065
0.000938997
0.000938997
0.000941119
0.000902857
0.000902789
0.000902789
0.000904911
0.00086665
0.000866582
0.000866583
0.000868705
0.000830444
0.000830377
0.000830377
0.000832499
0.00079424
0.000794172
0.000794173
0.000796295
0.000758036
0.000757968
0.000757968
0.00076009
0.000721832
0.000721764
0.000721764
0.000723886
0.000685628
0.00068556
0.00068556
0.000687682
0.000649423
0.000649356
0.000649356
0.000651478
0.00061322
0.000613152
0.000613152
0.000615274
0.000577017
0.000576949
0.000576949
0.000579071
0.000540812
0.000540744
0.000540744
0.000542866
0.000504605
0.000504538
0.000504538
0.00050666
0.000468399
0.000468332
0.000468332
0.000470454
0.000432192
0.000432124
0.000432124
0.000434246
0.000395978
0.00039591
0.000395911
0.000398033
0.00035976
0.000359691
0.000359692
0.000361813
0.000323541
0.000323473
0.000323473
0.000325593
0.000287327
0.000287258
0.000287258
0.000289377
0.000251115
0.000251045
0.000251045
0.000253162
0.000214896
0.000214831
0.000214831
0.000216944
0.000178672
0.00017861
0.00017861
0.000180717
0.000142438
0.00014238
0.000142379
0.000144478
0.000106185
0.000106134
0.000106134
0.000108219
6.99123e-05
6.98645e-05
6.98631e-05
7.19291e-05
3.42728e-05
3.38441e-05
3.38407e-05
3.58112e-05
3.80196e-06
2.05948e-06
2.06218e-06
2.86665e-06
0.00105458
0.00105669
0.00105669
0.00105458
0.00105668
0.00105668
0.00105669
0.00105669
0.00105458
0.00105668
0.00105668
0.00105458
0.00104976
0.00101837
0.00104764
0.00104763
0.00102047
0.00102047
0.00104976
0.00101837
0.00104763
0.00104763
0.00102047
0.00102047
0.00104763
0.00102047
0.00102047
0.00104975
0.00101837
0.00104763
0.00102047
0.00102047
0.00101837
0.00101354
0.000982157
0.00101142
0.00101142
0.000984261
0.00098426
0.00101354
0.000982157
0.00101142
0.00101142
0.00098426
0.000984261
0.00101142
0.000984261
0.000984261
0.00101354
0.000982157
0.00101142
0.00098426
0.000984261
0.000982157
0.00097733
0.000945946
0.000975208
0.000975208
0.00094805
0.00094805
0.00097733
0.000945946
0.000975207
0.000975208
0.00094805
0.00094805
0.000975208
0.00094805
0.00094805
0.00097733
0.000945946
0.000975208
0.00094805
0.000948049
0.000945946
0.00094112
0.000909737
0.000938998
0.000938997
0.000911841
0.000911841
0.000941119
0.000909737
0.000938997
0.000938997
0.000911841
0.000911841
0.000938997
0.000911841
0.000911841
0.000941119
0.000909737
0.000938997
0.000911841
0.00091184
0.000909737
0.000904911
0.000873531
0.000902789
0.000902789
0.000875634
0.000875634
0.000904911
0.000873531
0.000902789
0.000902789
0.000875634
0.000875634
0.000902789
0.000875634
0.000875634
0.000904911
0.000873531
0.000902789
0.000875634
0.000875634
0.000873531
0.000868704
0.000837325
0.000866582
0.000866582
0.000839428
0.000839428
0.000868704
0.000837325
0.000866582
0.000866583
0.000839428
0.000839428
0.000866583
0.000839428
0.000839428
0.000868705
0.000837325
0.000866583
0.000839428
0.000839428
0.000837325
0.000832499
0.00080112
0.000830377
0.000830377
0.000803224
0.000803223
0.000832499
0.00080112
0.000830376
0.000830377
0.000803223
0.000803224
0.000830377
0.000803223
0.000803224
0.000832499
0.00080112
0.000830377
0.000803224
0.000803224
0.00080112
0.000796295
0.000764916
0.000794173
0.000794172
0.00076702
0.000767019
0.000796294
0.000764916
0.000794173
0.000794173
0.000767019
0.00076702
0.000794173
0.000767019
0.00076702
0.000796295
0.000764916
0.000794173
0.00076702
0.000767019
0.000764916
0.000760091
0.000728711
0.000757968
0.000757968
0.000730815
0.000730815
0.00076009
0.000728712
0.000757968
0.000757968
0.000730815
0.000730815
0.000757968
0.000730815
0.000730815
0.00076009
0.000728712
0.000757968
0.000730815
0.000730815
0.000728712
0.000723886
0.000692507
0.000721764
0.000721764
0.000694611
0.000694611
0.000723886
0.000692508
0.000721764
0.000721764
0.000694611
0.000694611
0.000721764
0.000694611
0.000694611
0.000723886
0.000692507
0.000721764
0.000694611
0.000694611
0.000692508
0.000687682
0.000656303
0.00068556
0.00068556
0.000658407
0.000658407
0.000687682
0.000656304
0.00068556
0.00068556
0.000658406
0.000658407
0.00068556
0.000658407
0.000658407
0.000687682
0.000656303
0.00068556
0.000658407
0.000658407
0.000656304
0.000651478
0.0006201
0.000649356
0.000649356
0.000622203
0.000622203
0.000651478
0.0006201
0.000649355
0.000649356
0.000622203
0.000622203
0.000649356
0.000622203
0.000622203
0.000651478
0.0006201
0.000649356
0.000622203
0.000622203
0.0006201
0.000615274
0.000583897
0.000613152
0.000613152
0.000586
0.000586
0.000615274
0.000583897
0.000613152
0.000613152
0.000586
0.000586
0.000613152
0.000586
0.000586
0.000615274
0.000583897
0.000613152
0.000586
0.000586
0.000583897
0.000579071
0.000547692
0.000576949
0.000576949
0.000549795
0.000549795
0.000579071
0.000547692
0.000576949
0.000576949
0.000549795
0.000549795
0.000576949
0.000549795
0.000549795
0.000579071
0.000547692
0.000576949
0.000549795
0.000549795
0.000547692
0.000542866
0.000511486
0.000540744
0.000540744
0.000513589
0.000513589
0.000542866
0.000511486
0.000540744
0.000540744
0.000513589
0.000513589
0.000540744
0.000513589
0.000513589
0.000542866
0.000511486
0.000540744
0.000513589
0.000513589
0.000511486
0.000506659
0.00047528
0.000504538
0.000504538
0.000477383
0.000477383
0.00050666
0.00047528
0.000504537
0.000504538
0.000477383
0.000477383
0.000504538
0.000477383
0.000477384
0.00050666
0.00047528
0.000504538
0.000477383
0.000477383
0.00047528
0.000470454
0.000439073
0.000468332
0.000468332
0.000441177
0.000441177
0.000470454
0.000439073
0.000468332
0.000468332
0.000441176
0.000441177
0.000468332
0.000441177
0.000441177
0.000470454
0.000439073
0.000468332
0.000441177
0.000441177
0.000439073
0.000434246
0.000402861
0.000432124
0.000432124
0.000404965
0.000404965
0.000434246
0.000402861
0.000432124
0.000432124
0.000404965
0.000404965
0.000432124
0.000404965
0.000404965
0.000434246
0.000402861
0.000432124
0.000404965
0.000404965
0.000402861
0.000398033
0.000366643
0.000395911
0.00039591
0.000368747
0.000368746
0.000398033
0.000366643
0.000395911
0.000395911
0.000368747
0.000368747
0.000395911
0.000368746
0.000368746
0.000398033
0.000366643
0.00039591
0.000368747
0.000368746
0.000366643
0.000361814
0.000330424
0.000359692
0.000359691
0.000332528
0.000332527
0.000361813
0.000330424
0.000359692
0.000359692
0.000332527
0.000332528
0.000359691
0.000332527
0.000332527
0.000361814
0.000330424
0.000359691
0.000332527
0.000332527
0.000330424
0.000325594
0.000294209
0.000323473
0.000323473
0.000296312
0.000296311
0.000325593
0.000294209
0.000323473
0.000323473
0.000296311
0.000296311
0.000323473
0.000296312
0.000296312
0.000325594
0.000294209
0.000323473
0.000296311
0.000296311
0.000294209
0.000289377
0.000257997
0.000287258
0.000287258
0.000260099
0.000260099
0.000289377
0.000257997
0.000287258
0.000287258
0.000260098
0.000260099
0.000287258
0.000260099
0.000260099
0.000289377
0.000257997
0.000287258
0.000260099
0.000260099
0.000257997
0.000253162
0.000221785
0.000251045
0.000251045
0.000223885
0.000223885
0.000253162
0.000221785
0.000251045
0.000251045
0.000223885
0.000223885
0.000251046
0.000223885
0.000223885
0.000253162
0.000221785
0.000251045
0.000223885
0.000223885
0.000221785
0.000216944
0.000185567
0.000214831
0.000214831
0.000187665
0.000187665
0.000216944
0.000185567
0.000214831
0.000214831
0.000187665
0.000187665
0.000214831
0.000187665
0.000187665
0.000216944
0.000185566
0.000214831
0.000187665
0.000187665
0.000185567
0.000180717
0.00014934
0.00017861
0.00017861
0.000151437
0.000151436
0.000180717
0.00014934
0.00017861
0.00017861
0.000151436
0.000151436
0.00017861
0.000151436
0.000151437
0.000180717
0.00014934
0.00017861
0.000151436
0.000151436
0.00014934
0.000144477
0.000113098
0.00014238
0.00014238
0.000115193
0.000115193
0.000144477
0.000113099
0.000142379
0.00014238
0.000115192
0.000115192
0.00014238
0.000115193
0.000115193
0.000144477
0.000113098
0.00014238
0.000115192
0.000115192
0.000113098
0.000108219
7.683e-05
0.000106134
0.000106134
7.89234e-05
7.89232e-05
0.000108219
7.68307e-05
0.000106134
0.000106134
7.89228e-05
7.89227e-05
0.000106134
7.89231e-05
7.89225e-05
0.000108218
7.68289e-05
0.000106134
7.89224e-05
7.89226e-05
7.68293e-05
7.19303e-05
4.06456e-05
6.98648e-05
6.98646e-05
4.27103e-05
4.27107e-05
7.19303e-05
4.06466e-05
6.98638e-05
6.98633e-05
4.27082e-05
4.27071e-05
6.98636e-05
4.27094e-05
4.27071e-05
7.19294e-05
4.06428e-05
6.98634e-05
4.27066e-05
4.27055e-05
4.06426e-05
3.58153e-05
6.91221e-06
3.38458e-05
3.38462e-05
9.38338e-06
9.38169e-06
3.58159e-05
6.91038e-06
3.38438e-05
3.38419e-05
9.38193e-06
9.37932e-06
3.3841e-05
9.38003e-06
9.37672e-06
3.58115e-05
6.90883e-06
3.38399e-05
9.37961e-06
9.37785e-06
6.90692e-06
2.87029e-06
2.06685e-06
2.06117e-06
2.86936e-06
2.05696e-06
2.05926e-06
3.80128e-06
3.80001e-06
3.7997e-06
2.06084e-06
2.86846e-06
2.05633e-06
0.00105676
0.00105675
0.00105676
0.00105676
0.00103637
0.00104991
0.00104991
0.00103636
0.00104991
0.00103636
0.00103637
0.00104991
0.00104991
0.00103636
0.0010477
0.0010477
0.0010477
0.00102054
0.00102054
0.00102054
0.00102054
0.00103643
0.00104987
0.00104765
0.00103858
0.00104986
0.0010364
0.0010386
0.00104991
0.00103636
0.00103643
0.00104765
0.00104987
0.00103858
0.00104985
0.0010386
0.0010364
0.00104991
0.00104991
0.00103648
0.00103636
0.00103636
0.00100016
0.00101369
0.00101369
0.00100015
0.00101369
0.00100015
0.00100016
0.00101369
0.00101369
0.00100015
0.00101149
0.00101149
0.00101149
0.000984329
0.000984328
0.000984328
0.000984329
0.00100022
0.00101365
0.00101144
0.00100237
0.00101364
0.00100019
0.00100238
0.00101369
0.00100015
0.00100022
0.00101144
0.00101365
0.00100237
0.00101364
0.00100238
0.00100019
0.0010137
0.0010137
0.00100026
0.00100015
0.00100015
0.000963946
0.000977482
0.00097748
0.000963939
0.000977482
0.000963939
0.000963946
0.000977482
0.000977481
0.000963939
0.000975275
0.000975275
0.000975276
0.000948118
0.000948117
0.000948117
0.000948117
0.000964004
0.000977442
0.000975224
0.000966155
0.000977431
0.000963978
0.000966172
0.000977482
0.000963939
0.000964004
0.000975224
0.000977442
0.000966155
0.00097743
0.000966171
0.000963978
0.000977487
0.000977488
0.000964051
0.000963936
0.000963936
0.000927736
0.000941271
0.00094127
0.000927729
0.000941271
0.00092773
0.000927736
0.000941272
0.00094127
0.000927729
0.000939065
0.000939065
0.000939065
0.000911909
0.000911908
0.000911908
0.000911908
0.000927794
0.000941231
0.000939014
0.000929945
0.00094122
0.000927769
0.000929962
0.000941271
0.000927729
0.000927793
0.000939014
0.000941231
0.000929945
0.00094122
0.000929961
0.000927768
0.000941277
0.000941277
0.000927841
0.000927726
0.000927726
0.000891529
0.000905063
0.000905062
0.000891522
0.000905063
0.000891522
0.000891528
0.000905063
0.000905062
0.000891522
0.000902856
0.000902857
0.000902856
0.000875702
0.000875702
0.000875702
0.000875702
0.000891586
0.000905023
0.000902806
0.000893737
0.000905012
0.000891561
0.000893754
0.000905063
0.000891522
0.000891588
0.000902806
0.000905023
0.000893737
0.000905012
0.000893754
0.000891562
0.000905068
0.000905068
0.000891634
0.000891519
0.000891519
0.000855322
0.000868856
0.000868855
0.000855315
0.000868856
0.000855316
0.000855322
0.000868856
0.000868855
0.000855315
0.00086665
0.00086665
0.00086665
0.000839496
0.000839496
0.000839496
0.000839496
0.00085538
0.000868816
0.000866599
0.000857531
0.000868806
0.000855355
0.000857548
0.000868857
0.000855316
0.00085538
0.0008666
0.000868817
0.000857531
0.000868807
0.000857548
0.000855355
0.000868862
0.000868863
0.000855428
0.000855313
0.000855313
0.000819117
0.000832651
0.000832649
0.00081911
0.00083265
0.000819111
0.000819117
0.000832651
0.000832649
0.00081911
0.000830444
0.000830444
0.000830445
0.000803291
0.000803291
0.000803291
0.000803291
0.000819175
0.000832611
0.000830394
0.000821325
0.0008326
0.000819149
0.000821342
0.000832651
0.000819111
0.000819175
0.000830393
0.000832611
0.000821325
0.000832599
0.000821342
0.000819149
0.000832657
0.000832657
0.000819222
0.000819108
0.000819108
0.000782914
0.000796447
0.000796445
0.000782907
0.000796447
0.000782907
0.000782914
0.000796447
0.000796446
0.000782907
0.00079424
0.00079424
0.00079424
0.000767087
0.000767087
0.000767087
0.000767087
0.000782971
0.000796406
0.000794189
0.000785121
0.000796395
0.000782946
0.000785138
0.000796447
0.000782907
0.000782972
0.000794189
0.000796407
0.000785122
0.000796396
0.000785138
0.000782946
0.000796452
0.000796453
0.000783018
0.000782904
0.000782904
0.000746709
0.000760243
0.000760241
0.000746702
0.000760243
0.000746703
0.000746709
0.000760243
0.000760241
0.000746702
0.000758036
0.000758036
0.000758036
0.000730883
0.000730883
0.000730883
0.000730883
0.000746767
0.000760202
0.000757985
0.000748917
0.000760191
0.000746741
0.000748934
0.000760243
0.000746703
0.000746767
0.000757985
0.000760203
0.000748917
0.000760191
0.000748934
0.000746741
0.000760248
0.000760248
0.000746814
0.0007467
0.0007467
0.000710505
0.000724038
0.000724037
0.000710498
0.000724038
0.000710499
0.000710505
0.000724038
0.000724037
0.000710498
0.000721832
0.000721832
0.000721832
0.000694679
0.000694679
0.000694678
0.000694679
0.000710563
0.000723998
0.000721781
0.000712713
0.000723987
0.000710538
0.00071273
0.000724038
0.000710498
0.000710562
0.000721781
0.000723998
0.000712713
0.000723986
0.000712729
0.000710537
0.000724044
0.000724044
0.00071061
0.000710496
0.000710496
0.000674301
0.000687834
0.000687833
0.000674294
0.000687834
0.000674295
0.0006743
0.000687834
0.000687833
0.000674294
0.000685628
0.000685627
0.000685628
0.000658474
0.000658474
0.000658474
0.000658475
0.000674359
0.000687794
0.000685577
0.000676509
0.000687783
0.000674333
0.000676526
0.000687834
0.000674294
0.000674359
0.000685577
0.000687794
0.000676509
0.000687783
0.000676526
0.000674333
0.00068784
0.00068784
0.000674406
0.000674292
0.000674292
0.000638097
0.00065163
0.000651629
0.00063809
0.00065163
0.00063809
0.000638096
0.00065163
0.000651629
0.00063809
0.000649423
0.000649423
0.000649423
0.000622271
0.00062227
0.000622271
0.000622271
0.000638154
0.00065159
0.000649372
0.000640305
0.000651579
0.000638129
0.000640321
0.00065163
0.00063809
0.000638154
0.000649372
0.00065159
0.000640305
0.000651578
0.000640321
0.000638129
0.000651636
0.000651636
0.000638201
0.000638087
0.000638087
0.000601894
0.000615427
0.000615425
0.000601887
0.000615426
0.000601887
0.000601893
0.000615426
0.000615425
0.000601887
0.00061322
0.00061322
0.00061322
0.000586067
0.000586067
0.000586067
0.000586068
0.000601951
0.000615386
0.000613169
0.000604101
0.000615375
0.000601926
0.000604118
0.000615427
0.000601887
0.000601951
0.000613169
0.000615386
0.000604101
0.000615375
0.000604118
0.000601926
0.000615432
0.000615432
0.000601998
0.000601884
0.000601884
0.00056569
0.000579224
0.000579222
0.000565683
0.000579224
0.000565684
0.00056569
0.000579224
0.000579222
0.000565683
0.000577017
0.000577016
0.000577016
0.000549863
0.000549863
0.000549863
0.000549863
0.000565747
0.000579183
0.000576965
0.000567898
0.000579172
0.000565722
0.000567914
0.000579224
0.000565683
0.000565747
0.000576965
0.000579183
0.000567898
0.000579172
0.000567914
0.000565722
0.000579229
0.000579229
0.000565794
0.000565681
0.000565681
0.000529484
0.000543018
0.000543017
0.000529477
0.000543019
0.000529478
0.000529484
0.000543019
0.000543017
0.000529477
0.000540812
0.000540811
0.000540811
0.000513657
0.000513657
0.000513657
0.000513657
0.000529542
0.000542978
0.00054076
0.000531692
0.000542967
0.000529517
0.000531709
0.000543019
0.000529478
0.000529542
0.00054076
0.000542978
0.000531692
0.000542967
0.000531709
0.000529517
0.000543024
0.000543024
0.000529589
0.000529475
0.000529475
0.000493278
0.000506812
0.000506811
0.000493271
0.000506812
0.000493272
0.000493278
0.000506812
0.000506811
0.000493271
0.000504605
0.000504605
0.000504605
0.000477451
0.000477451
0.000477451
0.000477451
0.000493336
0.000506772
0.000504554
0.000495486
0.000506761
0.000493311
0.000495503
0.000506813
0.000493271
0.000493336
0.000504554
0.000506772
0.000495486
0.000506761
0.000495503
0.00049331
0.000506818
0.000506818
0.000493383
0.000493269
0.000493269
0.000457072
0.000470606
0.000470605
0.000457065
0.000470607
0.000457066
0.000457072
0.000470606
0.000470605
0.000457065
0.000468399
0.000468399
0.0004684
0.000441244
0.000441244
0.000441244
0.000441244
0.00045713
0.000470566
0.000468349
0.00045928
0.000470555
0.000457105
0.000459297
0.000470607
0.000457065
0.00045713
0.000468349
0.000470566
0.00045928
0.000470555
0.000459297
0.000457105
0.000470612
0.000470612
0.000457177
0.000457063
0.000457063
0.000420864
0.0004344
0.000434398
0.000420856
0.0004344
0.000420856
0.000420863
0.000434399
0.000434398
0.000420856
0.000432192
0.000432192
0.000432192
0.000405032
0.000405032
0.000405032
0.000405032
0.000420921
0.000434359
0.000432141
0.000423071
0.000434348
0.000420896
0.000423088
0.0004344
0.000420856
0.000420921
0.000432141
0.000434359
0.000423071
0.000434348
0.000423088
0.000420896
0.000434405
0.000434406
0.000420968
0.000420854
0.000420855
0.000384648
0.000398186
0.000398185
0.00038464
0.000398187
0.000384639
0.000384648
0.000398187
0.000398185
0.00038464
0.000395978
0.000395978
0.000395978
0.000368814
0.000368813
0.000368813
0.000368813
0.000384705
0.000398145
0.000395927
0.000386856
0.000398135
0.00038468
0.000386872
0.000398187
0.00038464
0.000384705
0.000395928
0.000398146
0.000386856
0.000398135
0.000386873
0.00038468
0.000398192
0.000398192
0.000384752
0.000384638
0.000384638
0.000348427
0.000361968
0.000361966
0.00034842
0.000361968
0.000348419
0.000348427
0.000361968
0.000361966
0.00034842
0.000359759
0.00035976
0.000359759
0.000332594
0.000332593
0.000332594
0.000332593
0.000348485
0.000361926
0.000359708
0.000350636
0.000361915
0.00034846
0.000350653
0.000361968
0.000348419
0.000348486
0.000359709
0.000361927
0.000350637
0.000361915
0.000350653
0.00034846
0.000361972
0.000361972
0.000348533
0.000348418
0.000348418
0.000312209
0.000325748
0.000325746
0.000312201
0.000325749
0.0003122
0.000312209
0.000325748
0.000325747
0.000312201
0.000323541
0.000323541
0.000323541
0.000296377
0.000296377
0.000296377
0.000296377
0.000312267
0.000325707
0.00032349
0.000314419
0.000325696
0.000312243
0.000314435
0.00032575
0.000312201
0.000312267
0.00032349
0.000325707
0.000314419
0.000325696
0.000314435
0.000312243
0.000325753
0.000325753
0.000312316
0.000312201
0.000312201
0.000275994
0.000289533
0.000289531
0.000275986
0.000289536
0.000275985
0.000275994
0.000289533
0.000289531
0.000275986
0.000287327
0.000287327
0.000287327
0.000260163
0.000260163
0.000260163
0.000260163
0.000276053
0.000289491
0.000287276
0.000278205
0.000289481
0.000276029
0.000278221
0.000289536
0.000275984
0.000276053
0.000287275
0.000289491
0.000278205
0.00028948
0.00027822
0.000276029
0.000289537
0.000289537
0.000276103
0.000275987
0.000275987
0.00023978
0.00025332
0.000253319
0.000239772
0.000253324
0.000239768
0.00023978
0.00025332
0.000253319
0.000239772
0.000251115
0.000251115
0.000251114
0.000223943
0.000223943
0.000223943
0.000223943
0.000239839
0.000253277
0.000251063
0.000241992
0.000253268
0.000239817
0.000242007
0.000253324
0.000239768
0.000239839
0.000251063
0.000253277
0.000241992
0.000253267
0.000242007
0.000239817
0.000253324
0.000253324
0.000239892
0.000239775
0.000239775
0.00020356
0.000217105
0.000217103
0.000203553
0.000217112
0.000203546
0.00020356
0.000217105
0.000217103
0.000203553
0.000214895
0.000214895
0.000214895
0.000187717
0.000187717
0.000187717
0.000187717
0.00020362
0.000217059
0.000214848
0.000205776
0.000217052
0.0002036
0.000205789
0.000217111
0.000203547
0.00020362
0.000214847
0.000217059
0.000205776
0.000217052
0.000205789
0.0002036
0.000217106
0.000217106
0.000203676
0.000203558
0.000203558
0.000167332
0.000180882
0.000180881
0.000167325
0.000180894
0.000167314
0.000167332
0.000180882
0.000180881
0.000167325
0.000178672
0.000178672
0.000178672
0.00015148
0.00015148
0.00015148
0.00015148
0.000167391
0.000180831
0.000178626
0.000169552
0.00018083
0.000167379
0.000169564
0.000180894
0.000167313
0.000167391
0.000178626
0.000180832
0.000169552
0.000180831
0.000169564
0.000167379
0.00018088
0.00018088
0.000167454
0.000167335
0.000167335
0.000131091
0.00014465
0.000144649
0.000131088
0.00014467
0.000131064
0.000131091
0.00014465
0.000144649
0.000131088
0.000142438
0.000142438
0.000142438
0.000115222
0.000115222
0.000115222
0.000115222
0.000131147
0.000144591
0.000142395
0.000133317
0.0001446
0.000131149
0.000133328
0.00014467
0.000131064
0.000131147
0.000142395
0.00014459
0.000133317
0.0001446
0.000133328
0.00013115
0.000144642
0.000144642
0.000131221
0.000131102
0.000131102
9.48298e-05
0.000108396
0.000108399
9.48318e-05
0.000108437
9.4783e-05
9.48291e-05
0.000108396
0.000108399
9.48312e-05
0.000106185
0.000106185
0.000106185
7.89311e-05
7.89301e-05
7.89302e-05
7.89299e-05
9.48761e-05
0.000108328
0.000106146
9.70617e-05
0.000108356
9.49037e-05
9.70699e-05
0.000108436
9.47819e-05
9.48757e-05
0.000106145
0.000108328
9.70613e-05
0.000108356
9.70694e-05
9.49028e-05
0.000108381
0.000108381
9.49678e-05
9.48529e-05
9.48528e-05
5.85291e-05
7.21111e-05
7.21227e-05
5.85452e-05
7.21992e-05
5.84273e-05
5.85271e-05
7.21104e-05
7.21216e-05
5.85432e-05
6.99114e-05
6.99111e-05
6.99109e-05
4.28946e-05
4.28954e-05
4.28921e-05
4.28921e-05
5.85614e-05
7.20216e-05
6.98772e-05
6.0782e-05
7.20938e-05
5.8639e-05
6.0809e-05
7.21955e-05
5.84297e-05
5.85605e-05
6.98763e-05
7.20205e-05
6.07802e-05
7.2093e-05
6.0808e-05
5.8637e-05
7.20817e-05
7.20819e-05
5.86913e-05
5.85774e-05
5.85771e-05
2.17294e-05
3.55437e-05
3.56182e-05
2.12387e-05
3.57309e-05
2.08665e-05
2.17165e-05
3.55366e-05
3.56123e-05
2.12303e-05
3.42733e-05
3.42696e-05
3.42692e-05
1.0042e-05
1.00409e-05
1.00398e-05
1.00388e-05
2.21054e-05
3.54582e-05
3.398e-05
2.52159e-05
3.57445e-05
2.16639e-05
2.53709e-05
3.57176e-05
2.08698e-05
2.2105e-05
3.39776e-05
3.54559e-05
2.52125e-05
3.57442e-05
2.53686e-05
2.16656e-05
3.54678e-05
3.5468e-05
2.30231e-05
2.13094e-05
2.13078e-05
-1.07589e-06
-5.52204e-07
2.9448e-06
-5.15967e-06
-9.1219e-07
-6.12237e-06
-1.06973e-06
-5.62968e-07
2.92713e-06
-5.15428e-06
9.76994e-07
5.28803e-06
5.28664e-06
1.16924e-06
5.94371e-06
4.58441e-07
4.59359e-07
-6.73672e-07
-1.60062e-07
4.21789e-06
5.15164e-07
3.16805e-06
1.18238e-06
9.64344e-08
-9.39002e-07
-6.11565e-06
-6.71558e-07
4.21748e-06
-1.63717e-07
5.13309e-07
3.16737e-06
9.66404e-08
1.187e-06
-1.17268e-06
-1.17304e-06
-7.57115e-07
-6.77834e-07
-6.65946e-07
0.00105447
0.00105448
0.00105447
0.00105447
0.00105447
0.00105448
0.00105447
0.00106802
0.00105448
0.00105451
0.0010567
0.00105453
0.00106574
0.00105451
0.0010567
0.00106798
0.00105453
0.00105447
0.00106802
0.00106786
0.00105447
0.00105447
0.00106802
0.00106802
0.00105447
0.00106802
0.00105447
0.00105448
0.00105451
0.0010567
0.00105453
0.00105447
0.00105448
0.0010567
0.00105451
0.00105453
0.00106796
0.00106574
0.00105451
0.0010567
0.00106798
0.00106576
0.00105454
0.00106802
0.00105447
0.00106802
0.00105448
0.00106796
0.00106574
0.0010567
0.00105451
0.00106575
0.00106798
0.00105454
0.00106802
0.00105447
0.00106802
0.00105448
0.00105447
0.00105447
0.00105447
0.00105447
0.0010567
0.00105451
0.00105453
0.00106574
0.0010567
0.00105451
0.00106797
0.00105453
0.00105447
0.00105448
0.00105447
0.00106802
0.00105448
0.00106786
0.00105447
0.00105447
0.00106802
0.00106802
0.00105447
0.00106802
0.00105447
0.00106802
0.00104991
0.00103636
0.00104991
0.00103636
0.00104992
0.00104992
0.00103648
0.00103636
0.00103636
0.00101826
0.0010318
0.00101826
0.0010318
0.00103165
0.00101825
0.00101825
0.00103181
0.00103181
0.00103637
0.00104991
0.00104991
0.00103636
0.00103643
0.00104987
0.00104765
0.00103858
0.00104986
0.0010364
0.0010386
0.00103643
0.00104987
0.00104765
0.00103858
0.00104986
0.0010364
0.0010386
0.0010318
0.00101826
0.0010318
0.00101826
0.0010318
0.00101826
0.0010318
0.00101826
0.00103175
0.00102953
0.0010183
0.00102049
0.00103176
0.00102954
0.00101832
0.00103175
0.00102953
0.0010183
0.00102049
0.00103176
0.00102954
0.00101832
0.00104991
0.00104991
0.00103648
0.00103636
0.00103636
0.00104991
0.00103636
0.00101826
0.0010318
0.00103165
0.00101825
0.00101825
0.00103181
0.00103181
0.00101826
0.0010318
0.00103643
0.00104987
0.00104765
0.00103858
0.00104985
0.0010364
0.00103859
0.00103637
0.00104991
0.00104991
0.00103636
0.00103643
0.00104765
0.00104987
0.00103858
0.00104985
0.0010386
0.0010364
0.0010318
0.00101826
0.0010318
0.00101826
0.00103175
0.00102953
0.0010183
0.00102049
0.00103176
0.00102954
0.00101832
0.0010318
0.00101826
0.0010318
0.00101826
0.00103175
0.00102953
0.00102049
0.0010183
0.00102954
0.00103176
0.00101832
0.00103637
0.00104991
0.00104991
0.00103636
0.00103643
0.00104765
0.00104987
0.00103858
0.00104986
0.0010386
0.0010364
0.00103637
0.00104991
0.00104991
0.00103636
0.00103175
0.00102953
0.0010183
0.00102049
0.00103176
0.00102954
0.00101832
0.0010318
0.00101826
0.0010318
0.00101826
0.00103175
0.00102953
0.00102049
0.0010183
0.00102954
0.00103176
0.00101832
0.0010318
0.00101826
0.0010318
0.00101826
0.00104992
0.00104992
0.00103648
0.00103636
0.00103636
0.00104991
0.00103636
0.00101826
0.0010318
0.00103165
0.00101825
0.00101825
0.00103181
0.00103181
0.00101826
0.0010318
0.00103643
0.00104765
0.00104987
0.00103858
0.00104985
0.0010386
0.0010364
0.00103637
0.00104991
0.00104991
0.00103636
0.00103637
0.00104991
0.00104991
0.00103636
0.00103175
0.00102953
0.00102049
0.0010183
0.00102954
0.00103176
0.00101832
0.00103175
0.00102953
0.00102049
0.0010183
0.00102954
0.00103176
0.00101832
0.0010318
0.00101826
0.0010318
0.00101826
0.0010318
0.00101826
0.0010318
0.00101826
0.00104991
0.00103636
0.00104991
0.00103636
0.00103165
0.00101825
0.00101825
0.00103181
0.00103181
0.00101826
0.0010318
0.00101826
0.0010318
0.00101369
0.00100015
0.00101369
0.00100015
0.0010137
0.0010137
0.00100026
0.00100015
0.00100015
0.000982045
0.000995588
0.000982045
0.000995588
0.000995436
0.000982042
0.000982042
0.000995594
0.000995594
0.00100016
0.00101369
0.00101369
0.00100015
0.00100022
0.00101365
0.00101144
0.00100237
0.00101364
0.00100019
0.00100238
0.00100022
0.00101365
0.00101144
0.00100237
0.00101364
0.00100019
0.00100238
0.000995586
0.000982044
0.000995588
0.000982052
0.000995586
0.000982044
0.000995588
0.000982052
0.000995537
0.000993314
0.000982084
0.000984277
0.000995548
0.00099333
0.00098211
0.000995537
0.000993313
0.000982084
0.000984277
0.000995548
0.00099333
0.00098211
0.0010137
0.0010137
0.00100026
0.00100015
0.00100015
0.00101369
0.00100015
0.000982045
0.000995588
0.000995436
0.000982042
0.000982042
0.000995594
0.000995594
0.000982045
0.000995588
0.00100022
0.00101365
0.00101144
0.00100237
0.00101364
0.00100019
0.00100238
0.00100016
0.00101369
0.00101369
0.00100015
0.00100022
0.00101144
0.00101365
0.00100237
0.00101364
0.00100238
0.00100019
0.000995587
0.000982045
0.000995588
0.000982052
0.000995537
0.000993313
0.000982084
0.000984277
0.000995548
0.00099333
0.00098211
0.000995587
0.000982045
0.000995588
0.000982051
0.000995537
0.000993314
0.000984277
0.000982084
0.00099333
0.000995548
0.00098211
0.00100016
0.00101369
0.00101369
0.00100015
0.00100022
0.00101144
0.00101365
0.00100237
0.00101364
0.00100238
0.00100019
0.00100016
0.00101369
0.00101369
0.00100015
0.000995537
0.000993314
0.000982084
0.000984277
0.000995548
0.00099333
0.00098211
0.000995586
0.000982045
0.000995588
0.000982051
0.000995537
0.000993314
0.000984277
0.000982084
0.00099333
0.000995548
0.00098211
0.000995586
0.000982044
0.000995588
0.000982051
0.0010137
0.0010137
0.00100026
0.00100015
0.00100015
0.00101369
0.00100015
0.000982045
0.000995588
0.000995436
0.000982042
0.000982042
0.000995593
0.000995594
0.000982045
0.000995588
0.00100022
0.00101144
0.00101365
0.00100237
0.00101364
0.00100238
0.00100019
0.00100016
0.00101369
0.00101369
0.00100015
0.00100016
0.00101369
0.00101369
0.00100015
0.000995536
0.000993313
0.000984277
0.000982084
0.00099333
0.000995548
0.000982109
0.000995537
0.000993314
0.000984277
0.000982084
0.00099333
0.000995548
0.000982109
0.000995586
0.000982044
0.000995588
0.000982051
0.000995587
0.000982044
0.000995588
0.000982051
0.00101369
0.00100015
0.00101369
0.00100015
0.000995436
0.000982042
0.000982042
0.000995594
0.000995594
0.000982045
0.000995588
0.000982045
0.000995588
0.000977482
0.000963939
0.000977482
0.00096394
0.000977488
0.000977488
0.000964051
0.000963937
0.000963937
0.000945834
0.000959376
0.000945835
0.000959377
0.000959225
0.000945831
0.000945832
0.000959382
0.000959383
0.000963946
0.000977482
0.00097748
0.000963939
0.000964004
0.000977442
0.000975225
0.000966155
0.000977431
0.000963978
0.000966172
0.000964004
0.000977442
0.000975225
0.000966155
0.000977431
0.000963978
0.000966172
0.000959375
0.000945834
0.000959376
0.000945841
0.000959375
0.000945834
0.000959376
0.000945841
0.000959325
0.000957103
0.000945873
0.000948067
0.000959337
0.000957119
0.000945899
0.000959325
0.000957102
0.000945873
0.000948067
0.000959336
0.000957119
0.000945899
0.000977488
0.000977487
0.000964051
0.000963936
0.000963937
0.000977482
0.000963939
0.000945834
0.000959376
0.000959225
0.000945831
0.000945831
0.000959382
0.000959382
0.000945834
0.000959376
0.000964004
0.000977442
0.000975224
0.000966155
0.000977431
0.000963979
0.000966172