/*--------------------------------*- C++ -*----------------------------------*\
| =========                 |                                                 |
| \\      /  F ield         | OpenFOAM: The Open Source CFD Toolbox           |
|  \\    /   O peration     | Version:  v1912                                 |
|   \\  /    A nd           | Website:  www.openfoam.com                      |
|    \\/     M anipulation  |                                                 |
\*---------------------------------------------------------------------------*/
FoamFile
{
    version     2.0;
    format      ascii;
    class       surfaceScalarField;
    location    "100";
    object      phi;
}
// * * * * * * * * * * * * * * * * * * * * * * * * * * * * * * * * * * * * * //

dimensions      [0 3 -1 0 0 0 0];
oriented        oriented;


internalField   nonuniform List<scalar> 
165494
(
5.22695e-09
5.91628e-09
-0.00114757
-5.59042e-09
-5.56471e-09
0.00114757
-0.00113698
-1.32247e-06
-5.74618e-09
1.14092e-08
0.00113698
-3.19304e-07
1.33127e-06
3.14018e-07
9.96649e-07
-3.12053e-07
-9.95361e-07
3.01286e-07
-0.00113661
-1.31688e-06
-5.72553e-09
1.14701e-08
0.00113661
-3.19285e-07
1.32552e-06
3.13997e-07
9.96348e-07
-3.14743e-07
-9.95222e-07
3.04049e-07
-0.000276102
1.3521e-06
1.31705e-06
-2.74204e-07
-2.79604e-07
0.000273987
5.26883e-09
5.74584e-09
-0.00114757
-5.53115e-09
-5.53174e-09
0.00114757
-0.00113698
-1.32247e-06
-5.8014e-09
1.15583e-08
0.00113698
-3.19302e-07
1.33124e-06
3.13973e-07
9.96658e-07
-3.11982e-07
-9.95317e-07
3.01327e-07
-0.00113661
-1.31686e-06
-5.66062e-09
1.15926e-08
0.00113661
-3.19274e-07
1.32555e-06
3.14004e-07
9.96389e-07
-3.1472e-07
-9.95182e-07
3.0408e-07
-0.000276102
1.35207e-06
1.31702e-06
-2.74185e-07
-2.79569e-07
0.000273987
5.37808e-09
5.8478e-09
-0.00114757
-5.58651e-09
-5.58922e-09
0.00114757
-0.00113698
-1.32247e-06
-5.89226e-09
1.15812e-08
0.00113698
-3.19276e-07
1.33123e-06
3.13968e-07
9.96679e-07
-3.11949e-07
-9.95264e-07
3.01337e-07
-0.00113661
-1.31687e-06
-5.85747e-09
1.16353e-08
0.00113661
-3.19269e-07
1.32552e-06
3.13973e-07
9.96444e-07
-3.14652e-07
-9.95107e-07
3.04118e-07
-0.000276103
1.35209e-06
1.31704e-06
-2.74194e-07
-2.79582e-07
0.000273987
5.4633e-09
5.89737e-09
-0.00114757
-5.63702e-09
-5.63234e-09
0.00114757
-0.00113698
-1.32247e-06
-6.05399e-09
1.15732e-08
0.00113698
-3.19254e-07
1.33121e-06
3.13952e-07
9.96727e-07
-3.11862e-07
-9.95187e-07
3.01401e-07
-0.00113661
-1.31687e-06
-5.99186e-09
1.16462e-08
0.00113661
-3.19229e-07
1.3255e-06
3.13975e-07
9.96484e-07
-3.14601e-07
-9.95047e-07
3.04137e-07
-0.000276103
1.35207e-06
1.31703e-06
-2.7418e-07
-2.79553e-07
0.000273988
5.45479e-09
6.01551e-09
-0.00114757
-5.68513e-09
-5.64368e-09
0.00114757
-0.00113698
-1.32247e-06
-6.13164e-09
1.15771e-08
0.00113698
-3.19241e-07
1.3312e-06
3.1394e-07
9.96752e-07
-3.11813e-07
-9.95138e-07
3.0143e-07
-0.00113661
-1.31685e-06
-6.14178e-09
1.16216e-08
0.00113661
-3.19203e-07
1.3255e-06
3.13968e-07
9.96537e-07
-3.1453e-07
-9.94968e-07
3.04179e-07
-0.000276103
1.35205e-06
1.31702e-06
-2.74151e-07
-2.79526e-07
0.000273988
5.58037e-09
6.02821e-09
-0.00114757
-5.73514e-09
-5.7112e-09
0.00114757
-0.00113698
-1.32243e-06
-6.12682e-09
1.14584e-08
0.00113698
-3.19203e-07
1.33122e-06
3.13962e-07
9.96751e-07
-3.11774e-07
-9.95117e-07
3.0144e-07
-0.00113661
-1.31683e-06
-6.18159e-09
1.15213e-08
0.00113661
-3.1917e-07
1.32551e-06
3.13988e-07
9.96539e-07
-3.14511e-07
-9.94969e-07
3.04191e-07
-0.000276103
1.35204e-06
1.31701e-06
-2.74135e-07
-2.79514e-07
0.000273988
5.73307e-09
6.17894e-09
-0.00114757
-5.84179e-09
-5.81855e-09
0.00114757
-0.00113697
-1.32238e-06
-6.13942e-09
1.13282e-08
0.00113697
-3.19147e-07
1.33126e-06
3.14001e-07
9.96744e-07
-3.11763e-07
-9.95102e-07
3.01436e-07
-0.00113661
-1.31679e-06
-6.20899e-09
1.14082e-08
0.00113661
-3.19125e-07
1.32554e-06
3.14016e-07
9.96572e-07
-3.14465e-07
-9.94924e-07
3.04219e-07
-0.000276103
1.35203e-06
1.317e-06
-2.74121e-07
-2.79484e-07
0.000273987
5.75925e-09
5.96696e-09
-0.00114757
-5.70669e-09
-5.82025e-09
0.00114757
-0.00113697
-1.32237e-06
-6.27957e-09
1.13498e-08
0.00113697
-3.19125e-07
1.33126e-06
3.14007e-07
9.96762e-07
-3.11731e-07
-9.95073e-07
3.01457e-07
-0.00113661
-1.31677e-06
-6.17631e-09
1.1402e-08
0.00113661
-3.19097e-07
1.32554e-06
3.14028e-07
9.96532e-07
-3.14476e-07
-9.94955e-07
3.04194e-07
-0.000276102
1.35203e-06
1.31695e-06
-2.74072e-07
-2.79494e-07
0.000273987
5.59756e-09
5.92482e-09
-0.00114757
-5.62001e-09
-5.73018e-09
0.00114757
-0.00113697
-1.32241e-06
-6.41377e-09
1.14718e-08
0.00113697
-3.19168e-07
1.3312e-06
3.13953e-07
9.96819e-07
-3.11656e-07
-9.95004e-07
3.01518e-07
-0.00113661
-1.31681e-06
-6.15638e-09
1.15382e-08
0.00113661
-3.19134e-07
1.3255e-06
3.13986e-07
9.96529e-07
-3.14473e-07
-9.94954e-07
3.04189e-07
-0.000276102
1.35205e-06
1.31693e-06
-2.74044e-07
-2.79502e-07
0.000273987
5.618e-09
5.99543e-09
-0.00114757
-5.7114e-09
-5.75363e-09
0.00114757
-0.00113697
-1.32237e-06
-6.05185e-09
1.14669e-08
0.00113697
-3.19134e-07
1.33123e-06
3.13974e-07
9.96706e-07
-3.11731e-07
-9.95089e-07
3.01411e-07
-0.00113661
-1.31682e-06
-6.09499e-09
1.1569e-08
0.00113661
-3.19153e-07
1.32548e-06
3.13958e-07
9.96516e-07
-3.14471e-07
-9.94959e-07
3.04179e-07
-0.000276101
1.35204e-06
1.31697e-06
-2.74076e-07
-2.79491e-07
0.000273986
5.66388e-09
6.09321e-09
-0.00114757
-5.81592e-09
-5.77738e-09
0.00114757
-0.00113697
-1.32236e-06
-5.91585e-09
1.1443e-08
0.00113697
-3.19126e-07
1.33125e-06
3.13994e-07
9.96671e-07
-3.11792e-07
-9.95137e-07
3.01362e-07
-0.00113661
-1.3168e-06
-6.08916e-09
1.15048e-08
0.00113661
-3.19126e-07
1.3255e-06
3.13989e-07
9.96527e-07
-3.1447e-07
-9.94947e-07
3.04174e-07
-0.000276101
1.35201e-06
1.31698e-06
-2.74084e-07
-2.79473e-07
0.000273986
5.75849e-09
6.33475e-09
-0.00114756
-5.95945e-09
-5.8378e-09
0.00114756
-0.00113697
-1.32239e-06
-6.12914e-09
1.14466e-08
0.00113697
-3.19153e-07
1.33121e-06
3.13956e-07
9.96746e-07
-3.1171e-07
-9.95055e-07
3.01433e-07
-0.00113661
-1.31676e-06
-6.16785e-09
1.13909e-08
0.00113661
-3.19094e-07
1.32553e-06
3.14017e-07
9.96559e-07
-3.1442e-07
-9.94911e-07
3.04213e-07
-0.000276101
1.35201e-06
1.31699e-06
-2.74093e-07
-2.79465e-07
0.000273985
5.67435e-09
6.26678e-09
-0.00114756
-5.89263e-09
-5.77489e-09
0.00114756
-0.00113697
-1.32237e-06
-6.26088e-09
1.14484e-08
0.00113697
-3.19137e-07
1.33121e-06
3.13959e-07
9.96775e-07
-3.11656e-07
-9.95e-07
3.01449e-07
-0.00113661
-1.31676e-06
-6.21877e-09
1.14028e-08
0.0011366
-3.19088e-07
1.32552e-06
3.14014e-07
9.96559e-07
-3.14405e-07
-9.94892e-07
3.04201e-07
-0.0002761
1.35201e-06
1.31697e-06
-2.74073e-07
-2.79455e-07
0.000273985
5.54111e-09
6.19868e-09
-0.00114756
-5.84359e-09
-5.68348e-09
0.00114756
-0.00113696
-1.32243e-06
-6.10458e-09
1.15589e-08
0.00113696
-3.19199e-07
1.33115e-06
3.1389e-07
9.96736e-07
-3.11655e-07
-9.9501e-07
3.01403e-07
-0.0011366
-1.31676e-06
-6.1659e-09
1.14045e-08
0.0011366
-3.19099e-07
1.32551e-06
3.13994e-07
9.96531e-07
-3.14397e-07
-9.94888e-07
3.04154e-07
-0.000276099
1.35204e-06
1.31702e-06
-2.74113e-07
-2.79483e-07
0.000273984
5.39216e-09
5.84828e-09
-0.00114756
-5.62663e-09
-5.54462e-09
0.00114756
-0.00113696
-1.32246e-06
-5.97298e-09
1.16988e-08
0.00113696
-3.19232e-07
1.33111e-06
3.13853e-07
9.96663e-07
-3.11653e-07
-9.95021e-07
3.01311e-07
-0.0011366
-1.31681e-06
-6.1315e-09
1.15744e-08
0.0011366
-3.19158e-07
1.32545e-06
3.13921e-07
9.96478e-07
-3.14366e-07
-9.94879e-07
3.0409e-07
-0.000276099
1.35204e-06
1.31701e-06
-2.74101e-07
-2.79473e-07
0.000273983
5.34609e-09
5.78734e-09
-0.00114756
-5.62497e-09
-5.58109e-09
0.00114756
-0.00113696
-1.32245e-06
-5.81472e-09
1.16221e-08
0.00113696
-3.19214e-07
1.3311e-06
3.13836e-07
9.96536e-07
-3.11649e-07
-9.95043e-07
3.0117e-07
-0.0011366
-1.31684e-06
-5.79749e-09
1.16216e-08
0.0011366
-3.19172e-07
1.32541e-06
3.13877e-07
9.96312e-07
-3.14402e-07
-9.94938e-07
3.03911e-07
-0.000276098
1.35207e-06
1.31704e-06
-2.74113e-07
-2.79494e-07
0.000273983
5.26068e-09
5.81182e-09
-0.00114756
-5.68094e-09
-5.60955e-09
0.00114756
-0.00113696
-1.32241e-06
-5.62301e-09
1.15392e-08
0.00113696
-3.19179e-07
1.33109e-06
3.13797e-07
9.96371e-07
-3.11596e-07
-9.95024e-07
3.00975e-07
-0.0011366
-1.31679e-06
-5.71093e-09
1.15012e-08
0.0011366
-3.19113e-07
1.3254e-06
3.1386e-07
9.96198e-07
-3.14299e-07
-9.94873e-07
3.03769e-07
-0.000276098
1.35205e-06
1.31703e-06
-2.74078e-07
-2.79452e-07
0.000273983
4.81299e-09
5.42997e-09
-0.00114756
-5.49234e-09
-5.36535e-09
0.00114756
-0.00113696
-1.32241e-06
-5.05698e-09
1.16404e-08
0.00113696
-3.19167e-07
1.33099e-06
3.13666e-07
9.96062e-07
-3.11537e-07
-9.94997e-07
3.00604e-07
-0.0011366
-1.31678e-06
-5.27453e-09
1.15653e-08
0.0011366
-3.191e-07
1.32531e-06
3.13734e-07
9.9592e-07
-3.14207e-07
-9.94814e-07
3.03431e-07
-0.000276098
1.35204e-06
1.31706e-06
-2.74059e-07
-2.79399e-07
0.000273982
3.94222e-09
4.37589e-09
-0.00114756
-4.99778e-09
-4.94466e-09
0.00114757
-0.00113696
-1.3225e-06
-4.10204e-09
1.18475e-08
0.00113696
-3.19238e-07
1.33073e-06
3.13364e-07
9.95527e-07
-3.11436e-07
-9.94979e-07
3.0002e-07
-0.0011366
-1.31688e-06
-4.3128e-09
1.18003e-08
0.0011366
-3.1917e-07
1.32504e-06
3.13428e-07
9.95388e-07
-3.14104e-07
-9.94784e-07
3.02834e-07
-0.000276099
1.35215e-06
1.31714e-06
-2.74068e-07
-2.79435e-07
0.000273983
2.83578e-09
3.13401e-09
-0.00114757
-4.2993e-09
-4.39925e-09
0.00114757
-0.00113697
-1.32248e-06
-3.55253e-09
1.20228e-08
0.00113697
-3.19157e-07
1.33046e-06
3.13079e-07
9.94923e-07
-3.11017e-07
-9.94677e-07
2.99337e-07
-0.00113661
-1.3169e-06
-3.3922e-09
1.21729e-08
0.00113661
-3.1914e-07
1.32474e-06
3.13085e-07
9.94707e-07
-3.1375e-07
-9.94552e-07
3.02081e-07
-0.0002761
1.35216e-06
1.31705e-06
-2.73866e-07
-2.79324e-07
0.000273983
2.70523e-09
2.91224e-09
-0.00114757
-4.28327e-09
-4.50104e-09
0.00114758
-0.00113697
-1.32213e-06
-3.79948e-09
1.1952e-08
0.00113697
-3.18717e-07
1.3303e-06
3.12839e-07
9.94279e-07
-3.09996e-07
-9.93793e-07
2.98551e-07
-0.00113661
-1.3166e-06
-3.32235e-09
1.22752e-08
0.00113661
-3.18745e-07
1.32453e-06
3.12804e-07
9.93997e-07
-3.12786e-07
-9.93738e-07
3.01243e-07
-0.000276101
1.35179e-06
1.31664e-06
-2.73223e-07
-2.78718e-07
0.000273985
2.50832e-09
2.8047e-09
-0.00114758
-4.57708e-09
-4.64772e-09
0.00114758
-0.00113698
-1.32154e-06
-3.27836e-09
1.20606e-08
0.00113698
-3.18025e-07
1.32998e-06
3.12364e-07
9.93147e-07
-3.08406e-07
-9.92406e-07
2.97195e-07
-0.00113662
-1.31598e-06
-3.08895e-09
1.22059e-08
0.00113662
-3.17982e-07
1.32426e-06
3.12375e-07
9.92895e-07
-3.11179e-07
-9.92324e-07
2.99908e-07
-0.000276103
1.35113e-06
1.31605e-06
-2.7222e-07
-2.77656e-07
0.000273985
7.06742e-10
1.16783e-09
-0.00114757
-4.35694e-09
-4.34006e-09
0.00114758
-0.00113698
-1.32079e-06
-1.24994e-09
1.25347e-08
0.00113698
-3.17013e-07
1.32917e-06
3.11317e-07
9.90941e-07
-3.06189e-07
-9.90526e-07
2.94629e-07
-0.00113662
-1.3152e-06
-1.30049e-09
1.25926e-08
0.00113661
-3.16966e-07
1.32347e-06
3.1133e-07
9.90747e-07
-3.08907e-07
-9.90384e-07
2.97394e-07
-0.000276104
1.35042e-06
1.3154e-06
-2.70903e-07
-2.76266e-07
0.000273985
-2.18705e-09
-1.86607e-09
-0.00114757
-3.80853e-09
-3.69901e-09
0.00114758
-0.00113698
-1.31978e-06
1.99116e-09
1.38316e-08
0.00113698
-3.15588e-07
1.32755e-06
3.09185e-07
9.87057e-07
-3.0287e-07
-9.87812e-07
2.90184e-07
-0.00113662
-1.31418e-06
1.821e-09
1.38018e-08
0.00113661
-3.15517e-07
1.32185e-06
3.09222e-07
9.8691e-07
-3.05546e-07
-9.87622e-07
2.92993e-07
-0.000276105
1.34942e-06
1.31443e-06
-2.68951e-07
-2.74282e-07
0.000273984
-6.61497e-09
-6.24849e-09
-0.00114756
-3.3521e-09
-3.25581e-09
0.00114758
-0.00113698
-1.31798e-06
6.31218e-09
1.58834e-08
0.00113698
-3.1295e-07
1.32466e-06
3.05456e-07
9.8082e-07
-2.973e-07
-9.83312e-07
2.82941e-07
-0.00113662
-1.31238e-06
6.16589e-09
1.58492e-08
0.00113661
-3.12892e-07
1.31897e-06
3.05452e-07
9.80659e-07
-2.99978e-07
-9.83127e-07
2.85743e-07
-0.000276107
1.34761e-06
1.31259e-06
-2.65637e-07
-2.70993e-07
0.000273983
-1.29606e-08
-1.26959e-08
-0.00114756
-3.68075e-09
-3.63054e-09
0.00114759
-0.00113698
-1.31444e-06
1.26696e-08
1.88037e-08
0.00113698
-3.07989e-07
1.31948e-06
2.98785e-07
9.70739e-07
-2.88032e-07
-9.75876e-07
2.70816e-07
-0.00113662
-1.30884e-06
1.25805e-08
1.87782e-08
0.00113662
-3.07928e-07
1.31379e-06
2.98782e-07
9.70546e-07
-2.90731e-07
-9.75727e-07
2.73634e-07
-0.000276109
1.3441e-06
1.30905e-06
-2.60084e-07
-2.65464e-07
0.000273982
-2.23186e-08
-2.20193e-08
-0.00114755
-5.96427e-09
-5.85132e-09
0.00114761
-0.00113699
-1.30747e-06
2.20923e-08
2.33922e-08
0.00113698
-2.98634e-07
1.30959e-06
2.86511e-07
9.54189e-07
-2.72323e-07
-9.6367e-07
2.50309e-07
-0.00113663
-1.30184e-06
2.19545e-08
2.33788e-08
0.00113662
-2.98591e-07
1.30392e-06
2.86563e-07
9.54008e-07
-2.75035e-07
-9.63457e-07
2.5313e-07
-0.000276113
1.33708e-06
1.30207e-06
-2.50823e-07
-2.56146e-07
0.00027398
-1.95141e-08
-1.91137e-08
-0.00114755
-1.9002e-08
-2.41898e-08
0.00114763
-0.00113699
-1.29302e-06
2.46625e-08
1.98887e-08
0.00113701
-2.80572e-07
1.29217e-06
2.6865e-07
9.31337e-07
-2.47741e-07
-9.4621e-07
2.17295e-07
-0.00113664
-1.28459e-06
1.90426e-08
2.54008e-08
0.00113666
-2.80467e-07
1.28369e-06
2.6584e-07
9.2842e-07
-2.47633e-07
-9.43206e-07
2.20175e-07
-0.000276121
1.32539e-06
1.28755e-06
-2.32509e-07
-2.37777e-07
0.000273978
8.36809e-07
8.44288e-07
-0.00114741
-7.5758e-07
-7.46863e-07
0.00114723
-0.0011373
-1.18196e-06
-8.38352e-07
-3.60565e-07
0.00113768
-1.79337e-07
1.4339e-06
3.41886e-07
1.06338e-06
-1.19561e-07
-8.27789e-07
2.90428e-07
-0.00113696
-1.17348e-06
-8.49604e-07
-3.71869e-07
0.00113735
-1.79204e-07
1.42831e-06
3.44854e-07
1.06034e-06
-1.2525e-07
-8.24737e-07
2.93282e-07
-0.000276192
1.21724e-06
1.17366e-06
-1.37201e-07
-1.39693e-07
0.000274078
5.47985e-06
5.47326e-06
-0.00113406
-1.11962e-05
-1.10953e-05
0.000274991
0.000278766
0.000277592
0.000277593
4.46314e-06
6.69818e-06
7.06127e-06
4.46773e-06
6.69918e-06
7.0648e-06
-0.000280646
5.24516e-06
-5.47018e-06
5.66292e-06
-3.32359e-06
0.000278532
-0.000280622
-5.4724e-06
5.25079e-06
-3.33162e-06
5.66009e-06
0.000278516
-0.000277053
-5.24222e-06
-5.25336e-06
5.82265e-06
5.81032e-06
0.000275916
-1.36622e-06
-1.32851e-06
0.000276118
-0.000273992
2.80214e-07
2.88137e-07
0.00113615
-1.13951e-08
1.20445e-08
-1.35771e-06
3.19468e-07
-3.2511e-07
-9.95479e-07
3.0106e-07
-3.12104e-07
9.96339e-07
1.37198e-06
0.00113661
-5.14841e-09
-0.00113661
1.21436e-08
-1.36334e-06
3.22363e-07
-3.27922e-07
-1.00115e-06
3.03921e-07
-3.15052e-07
1.00234e-06
-1.33126e-06
0.000276149
-0.000274014
2.8304e-07
2.85333e-07
0.00113725
8.39562e-10
6.00992e-09
-1.31977e-06
3.17021e-07
-3.22109e-07
-9.98143e-07
3.04126e-07
-3.1489e-07
9.99488e-07
1.3664e-06
0.00113626
-5.38449e-09
1.19327e-08
-1.35767e-06
3.22439e-07
-3.27866e-07
-9.98296e-07
3.03996e-07
-3.14877e-07
9.99265e-07
-5.74165e-09
-0.00113697
1.13313e-08
-1.32249e-06
3.14024e-07
-3.19288e-07
-9.9534e-07
3.0126e-07
9.96656e-07
-3.12044e-07
1.36065e-06
0.00113605
-5.41791e-09
-0.00113605
1.19316e-08
-1.35209e-06
3.16621e-07
-3.22153e-07
-9.98221e-07
3.0106e-07
-3.12095e-07
9.99222e-07
-1.32549e-06
0.000276096
-0.000273973
2.80428e-07
2.87922e-07
-5.48624e-09
1.14918e-08
-1.31691e-06
3.14011e-07
-3.19288e-07
-9.95206e-07
3.04006e-07
9.96358e-07
-3.14771e-07
1.32563e-06
0.00113715
8.25064e-10
-0.00113716
1.67688e-08
-1.31703e-06
3.14045e-07
-3.19305e-07
-9.9534e-07
3.04133e-07
-3.14837e-07
9.96836e-07
-0.000273986
2.8269e-07
2.88142e-07
1.35765e-06
1.31972e-06
-2.71543e-07
-2.79522e-07
0.000273992
-1.36627e-06
-1.32848e-06
0.000276119
-0.000273992
2.80149e-07
2.88154e-07
1.20546e-08
0.00113615
-3.25071e-07
1.36629e-06
3.19494e-07
9.96386e-07
-3.1208e-07
-9.95427e-07
3.01092e-07
-1.36336e-06
-5.23371e-09
1.74485e-08
0.0011366
-3.27968e-07
1.37197e-06
3.22335e-07
1.00231e-06
-3.15075e-07
-1.0012e-06
3.03927e-07
0.00113615
-5.26103e-09
-0.00113615
1.20645e-08
-1.35764e-06
3.19473e-07
-3.2505e-07
-9.95362e-07
3.01121e-07
-3.12026e-07
9.96428e-07
1.37199e-06
0.0011366
-5.1981e-09
-0.0011366
1.20474e-08
-1.36335e-06
3.22347e-07
-3.27942e-07
-1.00121e-06
3.0395e-07
-3.15047e-07
1.00229e-06
-2.74402e-07
-2.76719e-07
0.000274014
-1.33125e-06
0.00027615
-0.000274015
2.83041e-07
2.85336e-07
1.12146e-08
0.00113725
-3.22095e-07
1.3285e-06
3.16971e-07
9.99484e-07
-3.14857e-07
-9.98107e-07
3.04123e-07
-1.35765e-06
-5.50711e-09
1.19115e-08
0.00113626
-3.27848e-07
1.36639e-06
3.22414e-07
9.99229e-07
-3.14845e-07
-9.98188e-07
3.04003e-07
0.00113725
-5.77248e-09
-0.00113725
1.14847e-08
-1.31977e-06
3.16906e-07
-3.22176e-07
-9.9809e-07
3.04148e-07
-3.1485e-07
9.99532e-07
1.36635e-06
0.00113626
-5.19978e-09
-0.00113626
1.20497e-08
-1.35771e-06
3.22368e-07
-3.27903e-07
-9.98228e-07
3.03968e-07
-3.14888e-07
9.99204e-07
9.81471e-10
1.19965e-08
0.00113605
-3.22197e-07
1.36065e-06
3.1659e-07
9.9643e-07
-3.12105e-07
3.01069e-07
-9.98237e-07
-5.77596e-09
-0.00113698
1.15364e-08
-1.32247e-06
3.13996e-07
-3.19294e-07
-9.95324e-07
3.0132e-07
9.96662e-07
-3.11985e-07
1.36066e-06
0.00113605
-5.25003e-09
-0.00113605
1.20875e-08
-1.3521e-06
3.16621e-07
-3.22153e-07
-9.95442e-07
3.01098e-07
-3.12072e-07
9.96447e-07
-2.71777e-07
-2.79268e-07
0.000273973
-1.32555e-06
0.000276097
-0.000273973
2.80405e-07
2.87886e-07
-5.81021e-09
1.15442e-08
0.00113715
-3.19373e-07
1.32563e-06
3.14004e-07
9.96808e-07
-3.14868e-07
3.04136e-07
-9.9541e-07
-5.6185e-09
-0.00113661
1.16039e-08
-1.31687e-06
3.14014e-07
-3.19286e-07
-9.95147e-07
3.04051e-07
9.96443e-07
-3.14746e-07
1.32565e-06
0.00113715
-5.72788e-09
-0.00113715
1.15564e-08
-1.31705e-06
3.1403e-07
-3.19345e-07
-9.95403e-07
3.04176e-07
-3.14836e-07
9.96838e-07
-0.000273987
2.82681e-07
2.88153e-07
1.35764e-06
1.31976e-06
-2.7159e-07
-2.79504e-07
0.000273992
-1.36624e-06
-1.32844e-06
0.000276119
-0.000273993
2.80122e-07
2.8814e-07
1.20606e-08
0.00113615
-3.25051e-07
1.36625e-06
3.19455e-07
9.96406e-07
-3.1202e-07
-9.9536e-07
3.01115e-07
-1.36334e-06
-5.21375e-09
1.2051e-08
0.0011366
-3.27941e-07
1.37198e-06
3.2233e-07
1.00228e-06
-3.15032e-07
-1.0012e-06
3.03959e-07
0.00113615
-5.38107e-09
-0.00113615
1.20865e-08
-1.35766e-06
3.19434e-07
-3.25056e-07
-9.95317e-07
3.01129e-07
-3.1199e-07
9.96449e-07
1.37196e-06
0.0011366
-5.27006e-09
-0.0011366
1.20662e-08
-1.36336e-06
3.22328e-07
-3.27931e-07
-1.00118e-06
3.03966e-07
-3.15001e-07
1.00228e-06
-2.74385e-07
-2.76704e-07
0.000274015
-1.33123e-06
0.00027615
-0.000274015
2.83038e-07
2.85309e-07
1.14964e-08
0.00113725
-3.2217e-07
1.32847e-06
3.16899e-07
9.99537e-07
-3.1484e-07
-9.98064e-07
3.0415e-07
-1.35771e-06
-5.22724e-09
1.20515e-08
0.00113626
-3.27898e-07
1.36635e-06
3.22356e-07
9.99197e-07
-3.14876e-07
-9.98216e-07
3.03973e-07
0.00113725
-5.82911e-09
-0.00113725
1.14927e-08
-1.31978e-06
3.16874e-07
-3.22164e-07
-9.98032e-07
3.04169e-07
-3.14794e-07
9.99559e-07
1.36633e-06
0.00113626
-5.26554e-09
-0.00113626
1.20423e-08
-1.35772e-06
3.22339e-07
-3.27892e-07
-9.98194e-07
3.03986e-07
-3.14844e-07
9.99217e-07
-5.2917e-09
1.20748e-08
0.00113605
-3.22146e-07
1.36067e-06
3.16622e-07
9.96433e-07
-3.12065e-07
3.01098e-07
-9.95437e-07
-5.86977e-09
-0.00113698
1.15982e-08
-1.32248e-06
3.13972e-07
-3.19293e-07
-9.95279e-07
3.01322e-07
9.96678e-07
-3.11956e-07
1.36063e-06
0.00113605
-5.348e-09
-0.00113605
1.2109e-08
-1.3521e-06
3.16601e-07
-3.22127e-07
-9.95396e-07
3.01124e-07
-3.12021e-07
9.96461e-07
-2.71793e-07
-2.79287e-07
0.000273973
-1.32552e-06
0.000276097
-0.000273974
2.80373e-07
2.87879e-07
-5.74617e-09
1.15201e-08
0.00113715
-3.19336e-07
1.32567e-06
3.14033e-07
9.9683e-07
-3.14826e-07
3.04175e-07
-9.95388e-07
-5.84383e-09
-0.00113661
1.16315e-08
-1.31687e-06
3.13978e-07
-3.19275e-07
-9.95076e-07
3.04079e-07
9.96485e-07
-3.14685e-07
1.32563e-06
0.00113715
-5.86173e-09
-0.00113715
1.16016e-08
-1.31705e-06
3.14015e-07
-3.19317e-07
-9.95361e-07
3.0418e-07
-3.14803e-07
9.96844e-07
-0.000273987
2.82664e-07
2.8813e-07
1.35764e-06
1.31978e-06
-2.71593e-07
-2.79496e-07
0.000273993
-1.36622e-06
-1.32842e-06
0.000276119
-0.000273993
2.80125e-07
2.88136e-07
1.20836e-08
0.00113615
-3.25033e-07
1.36624e-06
3.19443e-07
9.96443e-07
-3.11976e-07
-9.95307e-07
3.01136e-07
-1.36335e-06
-5.29656e-09
1.20624e-08
0.0011366
-3.27916e-07
1.37196e-06
3.22324e-07
1.00228e-06
-3.14983e-07
-1.00116e-06
3.03982e-07
0.00113615
-5.4864e-09
-0.00113615
1.20785e-08
-1.35765e-06
3.19441e-07
-3.25005e-07
-9.95245e-07
3.01152e-07
-3.11935e-07
9.96497e-07
1.37196e-06
0.0011366
-5.28283e-09
-0.0011366
1.20112e-08
-1.36334e-06
3.22337e-07
-3.27885e-07
-1.00113e-06
3.03988e-07
-3.14946e-07
1.00229e-06
-2.74368e-07
-2.76707e-07
0.000274015
-1.33122e-06
0.00027615
-0.000274016
2.83028e-07
2.85337e-07
1.15017e-08
0.00113725
-3.22149e-07
1.32844e-06
3.16878e-07
9.99569e-07
-3.14783e-07
-9.98006e-07
3.04174e-07
-1.35772e-06
-5.29567e-09
1.20655e-08
0.00113626
-3.27891e-07
1.36632e-06
3.22328e-07
9.99229e-07
-3.14822e-07
-9.98167e-07
3.04002e-07
0.00113725
-5.90344e-09
-0.00113725
1.14925e-08
-1.31978e-06
3.16878e-07
-3.2212e-07
-9.97972e-07
3.0418e-07
-3.14751e-07
9.99595e-07
1.3663e-06
0.00113626
-5.27613e-09
-0.00113626
1.20429e-08
-1.35773e-06
3.22328e-07
-3.27867e-07
-9.98144e-07
3.03989e-07
-3.14806e-07
9.9924e-07
-5.36532e-09
1.21093e-08
0.00113605
-3.22135e-07
1.36063e-06
3.16593e-07
9.96451e-07
-3.12009e-07
3.01127e-07
-9.95385e-07
-6.0313e-09
-0.00113698
1.1553e-08
-1.32247e-06
3.13968e-07
-3.19256e-07
-9.95208e-07
3.01378e-07
9.96724e-07
-3.11879e-07
1.36061e-06
0.00113605
-5.40227e-09
-0.00113605
1.20627e-08
-1.3521e-06
3.16597e-07
-3.22098e-07
-9.9534e-07
3.01143e-07
-3.11971e-07
9.96488e-07
-2.71805e-07
-2.79281e-07
0.000273974
-1.3255e-06
0.000276098
-0.000273974
2.80366e-07
2.87868e-07
-5.84839e-09
1.16151e-08
0.00113715
-3.19326e-07
1.32563e-06
3.14003e-07
9.96844e-07
-3.14791e-07
3.04185e-07
-9.95345e-07
-5.9636e-09
-0.00113661
1.1635e-08
-1.31687e-06
3.13981e-07
-3.19234e-07
-9.95009e-07
3.041e-07
9.9653e-07
-3.1463e-07
1.3256e-06
0.00113715
-5.88289e-09
-0.00113715
1.15316e-08
-1.31705e-06
3.13997e-07
-3.193e-07
-9.95293e-07
3.04217e-07
-3.14736e-07
9.9688e-07
-0.000273988
2.82651e-07
2.88136e-07
1.35764e-06
1.31978e-06
-2.71579e-07
-2.79489e-07
0.000273993
-1.36623e-06
-1.32839e-06
0.000276119
-0.000273993
2.80093e-07
2.88162e-07
1.20744e-08
0.00113615
-3.25002e-07
1.36622e-06
3.19427e-07
9.96482e-07
-3.11925e-07
-9.95243e-07
3.01158e-07
-1.36333e-06
-5.2787e-09
1.20003e-08
0.0011366
-3.27875e-07
1.37196e-06
3.22328e-07
1.00228e-06
-3.14935e-07
-1.00112e-06
3.03995e-07
0.00113615
-5.47554e-09
-0.00113615
1.20451e-08
-1.35763e-06
3.19417e-07
-3.25005e-07
-9.95221e-07
3.0116e-07
-3.11899e-07
9.96503e-07
1.37195e-06
0.0011366
-5.24793e-09
-0.0011366
1.19678e-08
-1.36333e-06
3.22336e-07
-3.27856e-07
-1.00111e-06
3.03991e-07
-3.14915e-07
1.00228e-06
-2.74365e-07
-2.76663e-07
0.000274016
-1.33119e-06
0.00027615
-0.000274016
2.83029e-07
2.85331e-07
1.15214e-08
0.00113725
-3.22121e-07
1.32841e-06
3.16859e-07
9.996e-07
-3.14746e-07
-9.97954e-07
3.04184e-07
-1.35772e-06
-5.30878e-09
1.20457e-08
0.00113626
-3.27863e-07
1.3663e-06
3.2232e-07
9.99245e-07
-3.14791e-07
-9.98128e-07
3.04002e-07
0.00113725
-6.00325e-09
-0.00113725
1.15168e-08
-1.31979e-06
3.16834e-07
-3.22134e-07
-9.97917e-07
3.04225e-07
-3.14689e-07
9.99635e-07
1.3663e-06
0.00113626
-5.33886e-09
-0.00113626
1.19825e-08
-1.35771e-06
3.2232e-07
-3.27843e-07
-9.98091e-07
3.04026e-07
-3.14746e-07
9.99276e-07
-5.45867e-09
1.20142e-08
0.00113605
-3.2209e-07
1.36063e-06
3.16606e-07
9.96488e-07
-3.11955e-07
3.01154e-07
-9.9532e-07
-6.10723e-09
-0.00113698
1.16064e-08
-1.32248e-06
3.13947e-07
-3.19249e-07
-9.95157e-07
3.014e-07
9.96746e-07
-3.1183e-07
1.36063e-06
0.00113605
-5.51897e-09
-0.00113605
1.19353e-08
-1.35206e-06
3.1662e-07
-3.22043e-07
-9.95272e-07
3.01192e-07
-3.11896e-07
9.96525e-07
-2.71795e-07
-2.79273e-07
0.000273974
-1.3255e-06
0.000276098
-0.000273974
2.8038e-07
2.87883e-07
-5.87304e-09
1.1484e-08
0.00113715
-3.19295e-07
1.32561e-06
3.14001e-07
9.96882e-07
-3.14717e-07
3.04227e-07
-9.95275e-07
-6.13275e-09
-0.00113661
1.16378e-08
-1.31685e-06
3.13977e-07
-3.19206e-07
-9.94926e-07
3.04146e-07
9.96597e-07
-3.14557e-07
1.3256e-06
0.00113715
-6.01054e-09
-0.00113715
1.14531e-08
-1.31703e-06
3.14007e-07
-3.19256e-07
-9.95215e-07
3.04261e-07
-3.14663e-07
9.96928e-07
-0.000273988
2.82675e-07
2.88156e-07
1.35761e-06
1.31979e-06
-2.71599e-07
-2.79439e-07
0.000273993
-1.36621e-06
-1.3284e-06
0.000276119
-0.000273993
2.80127e-07
2.88142e-07
1.20338e-08
0.00113615
-3.24986e-07
1.36623e-06
3.19423e-07
9.96484e-07
-3.11901e-07
-9.95224e-07
3.01154e-07
-1.36331e-06
-5.27092e-09
1.19694e-08
0.0011366
-3.27846e-07
1.37196e-06
3.22332e-07
1.00227e-06
-3.14903e-07
-1.0011e-06
3.04e-07
0.00113615
-5.56071e-09
-0.00113615
1.2007e-08
-1.35762e-06
3.19429e-07
-3.24967e-07
-9.95192e-07
3.0117e-07
-3.11876e-07
9.9652e-07
1.37194e-06
0.0011366
-5.36512e-09
-0.0011366
1.19511e-08
-1.36331e-06
3.22329e-07
-3.27841e-07
-1.00106e-06
3.04026e-07
-3.14862e-07
1.0023e-06
-2.74348e-07
-2.76651e-07
0.000274016
-1.33121e-06
0.00027615
-0.000274016
2.83057e-07
2.85341e-07
1.15065e-08
0.00113725
-3.22121e-07
1.32838e-06
3.16837e-07
9.9964e-07
-3.14676e-07
-9.97895e-07
3.04231e-07
-1.35771e-06
-5.36086e-09
1.19824e-08
0.00113626
-3.27841e-07
1.3663e-06
3.22311e-07
9.99274e-07
-3.14734e-07
-9.98078e-07
3.0403e-07
0.00113725
-6.00989e-09
-0.00113725
1.14598e-08
-1.31977e-06
3.16855e-07
-3.22092e-07
-9.97907e-07
3.04216e-07
-3.14675e-07
9.99628e-07
1.3663e-06
0.00113626
-5.38372e-09
-0.00113626
1.1918e-08
-1.35769e-06
3.2233e-07
-3.27816e-07
-9.98082e-07
3.04028e-07
-3.14729e-07
9.99276e-07
-5.52278e-09
1.19368e-08
0.00113605
-3.2205e-07
1.36063e-06
3.16611e-07
9.9651e-07
-3.11888e-07
3.01191e-07
-9.95267e-07
-6.11824e-09
-0.00113698
1.1484e-08
-1.32245e-06
3.13956e-07
-3.19223e-07
-9.95126e-07
3.01433e-07
9.96749e-07
-3.11767e-07
1.36061e-06
0.00113605
-5.51673e-09
-0.00113605
1.18869e-08
-1.35206e-06
3.16607e-07
-3.22037e-07
-9.95247e-07
3.01209e-07
-3.1186e-07
9.96531e-07
-2.7177e-07
-2.79245e-07
0.000273974
-1.3255e-06
0.000276097
-0.000273974
2.8039e-07
2.87899e-07
-5.99311e-09
1.14602e-08
0.00113715
-3.19266e-07
1.3256e-06
3.13995e-07
9.96927e-07
-3.14648e-07
3.04268e-07
-9.952e-07
-6.17066e-09
-0.00113661
1.15506e-08
-1.31684e-06
3.13989e-07
-3.19179e-07
-9.94927e-07
3.04153e-07
9.9659e-07
-3.14537e-07
1.32559e-06
0.00113715
-6.02092e-09
-0.00113715
1.14528e-08
-1.31703e-06
3.13985e-07
-3.19263e-07
-9.95187e-07
3.04273e-07
-3.14626e-07
9.96929e-07
-0.000273988
2.82675e-07
2.88156e-07
1.35761e-06
1.31975e-06
-2.71547e-07
-2.79454e-07
0.000273993
-1.36624e-06
-1.32842e-06
0.000276119
-0.000273993
2.80164e-07
2.88183e-07
1.19833e-08
0.00113615
-3.24953e-07
1.36622e-06
3.19431e-07
9.96515e-07
-3.11861e-07
-9.95186e-07
3.01187e-07
-1.36331e-06
-5.43442e-09
1.19459e-08
0.0011366
-3.27831e-07
1.37194e-06
3.22324e-07
1.00232e-06
-3.14835e-07
-1.00103e-06
3.0405e-07
0.00113615
-5.72644e-09
-0.00113615
1.19021e-08
-1.35759e-06
3.19446e-07
-3.24936e-07
-9.95124e-07
3.01238e-07
-3.11796e-07
9.96579e-07
1.37195e-06
0.0011366
-5.51634e-09
-0.0011366
1.19502e-08
-1.3633e-06
3.22338e-07
-3.27815e-07
-1.00099e-06
3.04073e-07
-3.14793e-07
1.00235e-06
-2.74302e-07
-2.76641e-07
0.000274016
-1.33125e-06
0.00027615
-0.000274015
2.83103e-07
2.85352e-07
1.14478e-08
0.00113725
-3.22076e-07
1.32841e-06
3.16856e-07
9.99638e-07
-3.14669e-07
-9.97889e-07
3.04227e-07
-1.35769e-06
-5.44183e-09
1.19375e-08
0.00113626
-3.27813e-07
1.3663e-06
3.22322e-07
9.99288e-07
-3.1471e-07
-9.98061e-07
3.04046e-07
0.00113725
-6.16306e-09
-0.00113725
1.13607e-08
-1.31973e-06
3.16871e-07
-3.22059e-07
-9.97836e-07
3.04288e-07
-3.14594e-07
9.99691e-07
1.36629e-06
0.00113626
-5.5453e-09
-0.00113626
1.19478e-08
-1.35769e-06
3.22332e-07
-3.27797e-07
-9.98014e-07
3.04075e-07
-3.14672e-07
9.99335e-07
-5.5629e-09
1.18662e-08
0.00113605
-3.22033e-07
1.36063e-06
3.16617e-07
9.96531e-07
-3.11846e-07
3.0122e-07
-9.95232e-07
-6.13047e-09
-0.00113697
1.13569e-08
-1.3224e-06
3.14e-07
-3.19161e-07
-9.95102e-07
3.0143e-07
9.96753e-07
-3.11757e-07
1.36063e-06
0.00113605
-5.55032e-09
-0.00113605
1.18572e-08
-1.35204e-06
3.16628e-07
-3.21997e-07
-9.95208e-07
3.01235e-07
-3.11813e-07
9.96548e-07
-2.71748e-07
-2.79224e-07
0.000273974
-1.32552e-06
0.000276097
-0.000273974
2.80425e-07
2.87902e-07
-6.00985e-09
1.14238e-08
0.00113715
-3.19258e-07
1.32561e-06
3.13997e-07
9.96922e-07
-3.14624e-07
3.04274e-07
-9.95186e-07
-6.2174e-09
-0.00113661
1.14545e-08
-1.31681e-06
3.14015e-07
-3.19139e-07
-9.94879e-07
3.04188e-07
9.96628e-07
-3.14486e-07
1.32559e-06
0.00113715
-6.07679e-09
-0.00113715
1.14394e-08
-1.31701e-06
3.13999e-07
-3.19227e-07
-9.95152e-07
3.04313e-07
-3.14575e-07
9.96953e-07
-0.000273987
2.82691e-07
2.88181e-07
1.35757e-06
1.31972e-06
-2.71501e-07
-2.79404e-07
0.000273993
-1.36621e-06
-1.32843e-06
0.000276119
-0.000273992
2.80187e-07
2.88158e-07
1.18926e-08
0.00113615
-3.24915e-07
1.36624e-06
3.19458e-07
9.96571e-07
-3.11787e-07
-9.95117e-07
3.01242e-07
-1.36329e-06
-5.56159e-09
1.19444e-08
0.0011366
-3.27808e-07
1.37195e-06
3.22331e-07
1.00235e-06
-3.14776e-07
-1.00097e-06
3.04089e-07
0.00113615
-5.79127e-09
-0.00113615
1.19664e-08
-1.35759e-06
3.19426e-07
-3.24937e-07
-9.95085e-07
3.01258e-07
-3.11762e-07
9.96602e-07
1.37198e-06
0.0011366
-5.53226e-09
-0.0011366
1.18216e-08
-1.36327e-06
3.22367e-07
-3.27782e-07
-1.00097e-06
3.04085e-07
-3.14757e-07
1.00234e-06
-2.74253e-07
-2.76621e-07
0.000274015
-1.33126e-06
0.00027615
-0.000274015
2.83127e-07
2.85382e-07
1.13424e-08
0.00113725
-3.22036e-07
1.32843e-06
3.16886e-07
9.99696e-07
-3.14586e-07
-9.97815e-07
3.04291e-07
-1.35768e-06
-5.62461e-09
1.19444e-08
0.00113626
-3.27794e-07
1.36629e-06
3.22323e-07
9.99352e-07
-3.14644e-07
-9.97986e-07
3.04103e-07
0.00113725
-6.02073e-09
-0.00113725
1.13388e-08
-1.31971e-06
3.16886e-07
-3.2203e-07
-9.9785e-07
3.04249e-07
-3.1461e-07
9.99653e-07
1.3663e-06
0.00113626
-5.56172e-09
-0.00113626
1.18801e-08
-1.35768e-06
3.22337e-07
-3.27784e-07
-9.97984e-07
3.04095e-07
-3.14626e-07
9.99338e-07
-5.55465e-09
1.18791e-08
0.00113605
-3.22008e-07
1.36063e-06
3.1662e-07
9.9653e-07
-3.11817e-07
3.01224e-07
-9.95209e-07