/*--------------------------------*- C++ -*----------------------------------*\
| =========                 |                                                 |
| \\      /  F ield         | OpenFOAM: The Open Source CFD Toolbox           |
|  \\    /   O peration     | Version:  v1912                                 |
|   \\  /    A nd           | Website:  www.openfoam.com                      |
|    \\/     M anipulation  |                                                 |
\*---------------------------------------------------------------------------*/
FoamFile
{
    version     2.0;
    format      ascii;
    class       volVectorField;
    location    "100";
    object      U;
}
// * * * * * * * * * * * * * * * * * * * * * * * * * * * * * * * * * * * * * //

dimensions      [0 1 -1 0 0 0 0];


internalField   nonuniform List<vector> 
57062
(
(-2.38962e-06 -2.38771e-06 0.10902)
(-1.57746e-06 2.95438e-06 0.107944)
(2.9552e-06 -1.57579e-06 0.107943)
(-7.24262e-05 -7.24451e-05 0.1065)
(-2.37642e-06 -2.37241e-06 0.10902)
(-1.57665e-06 2.96991e-06 0.107944)
(2.96213e-06 -1.59663e-06 0.107943)
(-7.24245e-05 -7.24344e-05 0.1065)
(-2.38449e-06 -2.37883e-06 0.10902)
(-1.5725e-06 2.97121e-06 0.107944)
(2.97027e-06 -1.57903e-06 0.107943)
(-7.24297e-05 -7.24429e-05 0.1065)
(-2.38885e-06 -2.38168e-06 0.10902)
(-1.56155e-06 2.9706e-06 0.107944)
(2.96997e-06 -1.57006e-06 0.107943)
(-7.24278e-05 -7.2435e-05 0.1065)
(-2.39281e-06 -2.38163e-06 0.10902)
(-1.55716e-06 2.97048e-06 0.107944)
(2.96842e-06 -1.55615e-06 0.107943)
(-7.24216e-05 -7.2427e-05 0.1065)
(-2.39817e-06 -2.38828e-06 0.109019)
(-1.56061e-06 2.95677e-06 0.107944)
(2.95748e-06 -1.55335e-06 0.107943)
(-7.24198e-05 -7.24252e-05 0.1065)
(-2.41064e-06 -2.40112e-06 0.109019)
(-1.55902e-06 2.94643e-06 0.107944)
(2.95068e-06 -1.55171e-06 0.107943)
(-7.24153e-05 -7.2417e-05 0.1065)
(-2.39562e-06 -2.40189e-06 0.109019)
(-1.54832e-06 2.94675e-06 0.107943)
(2.94722e-06 -1.55568e-06 0.107943)
(-7.23975e-05 -7.24197e-05 0.1065)
(-2.38638e-06 -2.38965e-06 0.109019)
(-1.53205e-06 2.96324e-06 0.107943)
(2.96089e-06 -1.55333e-06 0.107943)
(-7.23875e-05 -7.24236e-05 0.1065)
(-2.39417e-06 -2.39136e-06 0.109019)
(-1.56545e-06 2.95796e-06 0.107943)
(2.96579e-06 -1.55552e-06 0.107943)
(-7.24017e-05 -7.24231e-05 0.1065)
(-2.40493e-06 -2.3953e-06 0.109019)
(-1.57615e-06 2.95329e-06 0.107943)
(2.96212e-06 -1.55786e-06 0.107943)
(-7.24052e-05 -7.24119e-05 0.1065)
(-2.42154e-06 -2.40131e-06 0.109019)
(-1.55328e-06 2.95865e-06 0.107943)
(2.94594e-06 -1.54853e-06 0.107943)
(-7.24101e-05 -7.24101e-05 0.106499)
(-2.41653e-06 -2.39409e-06 0.109019)
(-1.54153e-06 2.96026e-06 0.107943)
(2.9483e-06 -1.54522e-06 0.107942)
(-7.24036e-05 -7.24094e-05 0.106499)
(-2.41051e-06 -2.38454e-06 0.109019)
(-1.55392e-06 2.9767e-06 0.107943)
(2.95378e-06 -1.554e-06 0.107942)
(-7.24231e-05 -7.24249e-05 0.106499)
(-2.38401e-06 -2.3712e-06 0.109019)
(-1.56784e-06 2.99099e-06 0.107943)
(2.97281e-06 -1.55918e-06 0.107942)
(-7.24208e-05 -7.24232e-05 0.106499)
(-2.38242e-06 -2.37207e-06 0.109019)
(-1.58554e-06 2.98419e-06 0.107943)
(2.97761e-06 -1.59056e-06 0.107942)
(-7.24288e-05 -7.24338e-05 0.106498)
(-2.38829e-06 -2.37195e-06 0.109019)
(-1.60553e-06 2.98067e-06 0.107943)
(2.96889e-06 -1.59719e-06 0.107942)
(-7.24227e-05 -7.24246e-05 0.106498)
(-2.36071e-06 -2.3417e-06 0.109019)
(-1.65573e-06 3.0014e-06 0.107943)
(2.98696e-06 -1.63538e-06 0.107942)
(-7.24252e-05 -7.24137e-05 0.106498)
(-2.29521e-06 -2.28529e-06 0.10902)
(-1.74368e-06 3.04603e-06 0.107943)
(3.03669e-06 -1.72584e-06 0.107943)
(-7.24425e-05 -7.24414e-05 0.106498)
(-2.21625e-06 -2.21785e-06 0.109021)
(-1.81093e-06 3.0916e-06 0.107943)
(3.09812e-06 -1.81737e-06 0.107943)
(-7.23861e-05 -7.24207e-05 0.106499)
(-2.22381e-06 -2.23489e-06 0.109022)
(-1.82512e-06 3.10289e-06 0.107944)
(3.12505e-06 -1.8501e-06 0.107944)
(-7.2173e-05 -7.22238e-05 0.1065)
(-2.26615e-06 -2.26576e-06 0.109023)
(-1.90991e-06 3.15441e-06 0.107945)
(3.16129e-06 -1.92151e-06 0.107944)
(-7.18396e-05 -7.18659e-05 0.1065)
(-2.24775e-06 -2.24039e-06 0.109023)
(-2.15136e-06 3.29811e-06 0.107945)
(3.29953e-06 -2.14829e-06 0.107944)
(-7.14115e-05 -7.14126e-05 0.106501)
(-2.1675e-06 -2.14882e-06 0.109025)
(-2.68024e-06 3.61587e-06 0.107945)
(3.60848e-06 -2.6578e-06 0.107945)
(-7.07514e-05 -7.07377e-05 0.106503)
(-2.09788e-06 -2.07905e-06 0.109027)
(-3.53024e-06 4.13821e-06 0.107946)
(4.1318e-06 -3.51189e-06 0.107946)
(-6.95351e-05 -6.95325e-05 0.106506)
(-2.17786e-06 -2.1657e-06 0.10903)
(-4.88483e-06 4.95863e-06 0.107948)
(4.95253e-06 -4.8719e-06 0.107947)
(-6.72543e-05 -6.72624e-05 0.106512)
(-2.63779e-06 -2.61782e-06 0.109035)
(-7.14689e-06 6.29682e-06 0.107951)
(6.28962e-06 -7.12895e-06 0.107951)
(-6.28636e-05 -6.28563e-05 0.106524)
(-4.00751e-06 -3.97851e-06 0.109041)
(-1.09951e-05 8.60536e-06 0.107956)
(8.5969e-06 -1.09548e-05 0.107956)
(-5.39246e-05 -5.39049e-05 0.106546)
(-1.09504e-05 -1.08696e-05 0.109044)
(-1.43653e-05 1.11749e-05 0.107963)
(1.11508e-05 -1.43407e-05 0.107963)
(-3.37723e-05 -3.37335e-05 0.106582)
(-4.19492e-05 -4.17902e-05 0.109033)
(3.78224e-05 -2.31453e-05 0.108018)
(-2.32382e-05 3.78195e-05 0.108018)
(3.23742e-05 3.24495e-05 0.106756)
(-7.91785e-05 -7.91871e-05 0.106639)
(3.06005e-06 1.70837e-06 0.107943)
(-3.05417e-06 1.65506e-06 0.107943)
(7.92146e-05 -7.91689e-05 0.106639)
(1.60863e-06 2.91122e-06 0.107943)
(1.655e-06 -3.02376e-06 0.107943)
(-1.58059e-06 2.94935e-06 0.107944)
(-1.64266e-06 -3.01249e-06 0.107943)
(-7.91524e-05 7.92472e-05 0.106639)
(2.95923e-06 -1.60086e-06 0.107943)
(-2.95017e-06 -1.57529e-06 0.107943)
(7.91556e-05 7.91833e-05 0.106639)
(7.24327e-05 7.23696e-05 0.1065)
(-7.9204e-05 -7.91657e-05 0.106639)
(3.04404e-06 1.68162e-06 0.107943)
(-3.06189e-06 1.64836e-06 0.107943)
(3.04068e-06 1.65936e-06 0.107943)
(-3.055e-06 1.65871e-06 0.107943)
(-7.24075e-05 7.23654e-05 0.1065)
(7.92115e-05 -7.91724e-05 0.106639)
(1.58687e-06 2.91684e-06 0.107943)
(1.6244e-06 -3.01593e-06 0.107943)
(1.58851e-06 2.95641e-06 0.107943)
(1.65765e-06 -3.03084e-06 0.107943)
(-1.63266e-06 -3.02457e-06 0.107943)
(-1.57415e-06 2.96668e-06 0.107944)
(-1.64484e-06 -3.02492e-06 0.107943)
(7.23901e-05 -7.24084e-05 0.1065)
(-7.91608e-05 7.92246e-05 0.106639)
(-2.96344e-06 -1.56372e-06 0.107943)
(2.96244e-06 -1.59823e-06 0.107943)
(-2.95871e-06 -1.57474e-06 0.107943)
(7.91488e-05 7.91864e-05 0.106639)
(7.24138e-05 7.23904e-05 0.1065)
(-7.9189e-05 -7.91491e-05 0.106639)
(3.04315e-06 1.66161e-06 0.107943)
(-3.0557e-06 1.65984e-06 0.107943)
(3.0453e-06 1.64669e-06 0.107943)
(-3.05638e-06 1.661e-06 0.107943)
(-7.24041e-05 7.23583e-05 0.1065)
(7.91972e-05 -7.91637e-05 0.10664)
(1.59085e-06 2.96021e-06 0.107943)
(1.65694e-06 -3.03172e-06 0.107943)
(1.58369e-06 2.96176e-06 0.107943)
(1.65256e-06 -3.03076e-06 0.107943)
(-1.65037e-06 -3.0257e-06 0.107943)
(-1.57462e-06 2.97274e-06 0.107944)
(-1.63932e-06 -3.02917e-06 0.107943)
(7.23873e-05 -7.24312e-05 0.1065)
(-7.91452e-05 7.92088e-05 0.106639)
(-2.95655e-06 -1.58017e-06 0.107943)
(2.96914e-06 -1.5797e-06 0.107943)
(-2.9621e-06 -1.57126e-06 0.107943)
(7.91382e-05 7.91712e-05 0.106639)
(7.24154e-05 7.23952e-05 0.1065)
(-7.91831e-05 -7.91425e-05 0.106639)
(3.04461e-06 1.64898e-06 0.107943)
(-3.05677e-06 1.65808e-06 0.107943)
(3.04419e-06 1.63441e-06 0.107943)
(-3.05085e-06 1.66271e-06 0.107943)
(-7.24063e-05 7.2355e-05 0.1065)
(7.91975e-05 -7.91556e-05 0.10664)
(1.58231e-06 2.96429e-06 0.107943)
(1.64885e-06 -3.03388e-06 0.107943)
(1.57744e-06 2.96627e-06 0.107943)
(1.65302e-06 -3.03307e-06 0.107943)
(-1.64474e-06 -3.03105e-06 0.107943)
(-1.56205e-06 2.96755e-06 0.107944)
(-1.62958e-06 -3.02559e-06 0.107943)
(7.23928e-05 -7.24369e-05 0.1065)
(-7.91371e-05 7.91956e-05 0.106639)
(-2.96534e-06 -1.57411e-06 0.107943)
(2.96926e-06 -1.57141e-06 0.107943)
(-2.95847e-06 -1.55629e-06 0.107943)
(7.91258e-05 7.91661e-05 0.106639)
(7.24134e-05 7.23937e-05 0.1065)
(-7.91855e-05 -7.91256e-05 0.106639)
(3.04408e-06 1.63838e-06 0.107943)
(-3.05155e-06 1.66289e-06 0.107943)
(3.04111e-06 1.63456e-06 0.107943)
(-3.04724e-06 1.66737e-06 0.107943)
(-7.23958e-05 7.23547e-05 0.1065)
(7.9193e-05 -7.91471e-05 0.10664)
(1.57846e-06 2.97133e-06 0.107943)
(1.64938e-06 -3.034e-06 0.107943)
(1.56449e-06 2.96753e-06 0.107943)
(1.64655e-06 -3.02829e-06 0.107943)
(-1.63315e-06 -3.02136e-06 0.107943)
(-1.55944e-06 2.97305e-06 0.107944)
(-1.61941e-06 -3.01267e-06 0.107943)
(7.23902e-05 -7.24389e-05 0.1065)
(-7.91356e-05 7.91933e-05 0.106639)
(-2.95505e-06 -1.55923e-06 0.107943)
(2.96822e-06 -1.55605e-06 0.107943)
(-2.95081e-06 -1.54447e-06 0.107943)
(7.91256e-05 7.91684e-05 0.106639)
(7.23986e-05 7.24009e-05 0.1065)
(-7.91757e-05 -7.91346e-05 0.106639)
(3.04078e-06 1.63969e-06 0.107943)
(-3.0475e-06 1.66569e-06 0.107943)
(3.03634e-06 1.62568e-06 0.107943)
(-3.04602e-06 1.66013e-06 0.107943)
(-7.23911e-05 7.23529e-05 0.1065)
(7.91913e-05 -7.91525e-05 0.10664)
(1.56299e-06 2.96794e-06 0.107943)
(1.64435e-06 -3.02913e-06 0.107943)
(1.56726e-06 2.96573e-06 0.107943)
(1.64478e-06 -3.0226e-06 0.107942)
(-1.62748e-06 -3.01471e-06 0.107943)
(-1.56115e-06 2.95876e-06 0.107944)
(-1.61891e-06 -3.01017e-06 0.107943)
(7.23825e-05 -7.24326e-05 0.1065)
(-7.91375e-05 7.91958e-05 0.106639)
(-2.95349e-06 -1.54829e-06 0.107943)
(2.96024e-06 -1.55452e-06 0.107943)
(-2.95148e-06 -1.54489e-06 0.107943)
(7.91197e-05 7.91621e-05 0.106639)
(7.24035e-05 7.23832e-05 0.1065)
(-7.91863e-05 -7.91438e-05 0.106639)
(3.03352e-06 1.626e-06 0.107943)
(-3.04579e-06 1.65278e-06 0.107943)
(3.02497e-06 1.61065e-06 0.107943)
(-3.04476e-06 1.6485e-06 0.107943)
(-7.23883e-05 7.23384e-05 0.1065)
(7.91921e-05 -7.9168e-05 0.10664)
(1.56644e-06 2.96538e-06 0.107943)
(1.63937e-06 -3.02489e-06 0.107942)
(1.5549e-06 2.95652e-06 0.107943)
(1.63238e-06 -3.02525e-06 0.107942)
(-1.62361e-06 -3.0084e-06 0.107943)
(-1.55985e-06 2.94897e-06 0.107944)
(-1.61815e-06 -3.00376e-06 0.107943)
(7.23757e-05 -7.24254e-05 0.1065)
(-7.91468e-05 7.9193e-05 0.106639)
(-2.94908e-06 -1.54893e-06 0.107943)
(2.9545e-06 -1.54983e-06 0.107943)
(-2.94768e-06 -1.54e-06 0.107943)
(7.91224e-05 7.91672e-05 0.106639)
(7.23872e-05 7.23687e-05 0.1065)
(-7.91769e-05 -7.91481e-05 0.106639)
(3.02456e-06 1.61404e-06 0.107943)
(-3.0443e-06 1.644e-06 0.107943)
(3.03342e-06 1.60543e-06 0.107943)
(-3.02954e-06 1.64762e-06 0.107943)
(-7.23821e-05 7.23197e-05 0.1065)
(7.9202e-05 -7.91757e-05 0.106639)
(1.55435e-06 2.95492e-06 0.107943)
(1.62476e-06 -3.0255e-06 0.107942)
(1.56995e-06 2.95396e-06 0.107943)
(1.63217e-06 -3.02058e-06 0.107942)
(-1.62723e-06 -3.00742e-06 0.107943)
(-1.55321e-06 2.94382e-06 0.107943)
(-1.61176e-06 -3.01195e-06 0.107943)
(7.23606e-05 -7.24245e-05 0.1065)
(-7.9157e-05 7.91956e-05 0.106639)
(-2.94838e-06 -1.54562e-06 0.107943)
(2.94179e-06 -1.55384e-06 0.107943)
(-2.93502e-06 -1.55422e-06 0.107943)
(7.91296e-05 7.91601e-05 0.106639)
(7.23983e-05 7.23642e-05 0.1065)
(-7.91653e-05 -7.91267e-05 0.106639)
(3.03766e-06 1.61065e-06 0.107943)
(-3.02762e-06 1.64757e-06 0.107943)
(3.05404e-06 1.622e-06 0.107942)
(-3.03271e-06 1.66549e-06 0.107942)
(-7.23662e-05 7.23112e-05 0.1065)
(7.92076e-05 -7.91519e-05 0.106639)
(1.57368e-06 2.95423e-06 0.107943)
(1.63395e-06 -3.02175e-06 0.107942)
(1.57607e-06 2.96538e-06 0.107943)
(1.64968e-06 -3.02905e-06 0.107942)
(-1.61094e-06 -3.01086e-06 0.107943)
(-1.53875e-06 2.96544e-06 0.107943)
(-1.60033e-06 -3.02298e-06 0.107942)
(7.2352e-05 -7.24195e-05 0.1065)
(-7.91367e-05 7.9186e-05 0.106639)
(-2.92694e-06 -1.56143e-06 0.107943)
(2.96304e-06 -1.55714e-06 0.107943)
(-2.93014e-06 -1.56084e-06 0.107943)
(7.9141e-05 7.91514e-05 0.106639)
(7.24012e-05 7.23807e-05 0.1065)
(-7.91698e-05 -7.91342e-05 0.106638)
(3.04775e-06 1.62484e-06 0.107943)
(-3.02933e-06 1.65954e-06 0.107942)
(3.04511e-06 1.62318e-06 0.107942)
(-3.0396e-06 1.65565e-06 0.107942)
(-7.23572e-05 7.23284e-05 0.1065)
(7.91991e-05 -7.9165e-05 0.106639)
(1.57148e-06 2.96367e-06 0.107943)
(1.64307e-06 -3.02825e-06 0.107942)
(1.57158e-06 2.96646e-06 0.107943)
(1.65419e-06 -3.0409e-06 0.107942)
(-1.60479e-06 -3.02497e-06 0.107942)
(-1.553e-06 2.9551e-06 0.107943)
(-1.60778e-06 -3.02197e-06 0.107942)
(7.23664e-05 -7.24232e-05 0.1065)
(-7.91282e-05 7.91816e-05 0.106638)
(-2.93195e-06 -1.56464e-06 0.107943)
(2.96832e-06 -1.55702e-06 0.107943)
(-2.94436e-06 -1.55652e-06 0.107943)
(7.91249e-05 7.91479e-05 0.106638)
(7.23929e-05 7.23711e-05 0.1065)
(-7.91789e-05 -7.91439e-05 0.106638)
(3.03752e-06 1.62326e-06 0.107942)
(-3.05183e-06 1.65066e-06 0.107942)
(3.03343e-06 1.61753e-06 0.107942)
(-3.066e-06 1.64808e-06 0.107942)
(-7.23716e-05 7.23132e-05 0.1065)
(7.9164e-05 -7.91656e-05 0.106639)
(1.56772e-06 2.95978e-06 0.107943)
(1.64919e-06 -3.04177e-06 0.107942)
(1.56568e-06 2.95973e-06 0.107943)
(1.64771e-06 -3.04263e-06 0.107942)
(-1.61724e-06 -3.01962e-06 0.107942)
(-1.5848e-06 2.96147e-06 0.107943)
(-1.6222e-06 -3.00829e-06 0.107942)
(7.23737e-05 -7.24269e-05 0.1065)
(-7.91351e-05 7.91811e-05 0.106638)
(-2.94696e-06 -1.56142e-06 0.107943)
(2.96478e-06 -1.55768e-06 0.107943)
(-2.95301e-06 -1.55152e-06 0.107943)
(7.91182e-05 7.9158e-05 0.106638)
(7.23863e-05 7.2362e-05 0.1065)
(-7.91965e-05 -7.91461e-05 0.106638)
(3.0315e-06 1.61958e-06 0.107942)
(-3.05795e-06 1.63975e-06 0.107942)
(3.02117e-06 1.61053e-06 0.107942)
(-3.06406e-06 1.65615e-06 0.107942)
(-7.23958e-05 7.23095e-05 0.1065)
(7.91848e-05 -7.91566e-05 0.106639)
(1.56269e-06 2.96051e-06 0.107943)
(1.63817e-06 -3.04309e-06 0.107942)
(1.54656e-06 2.95602e-06 0.107943)
(1.62981e-06 -3.0433e-06 0.107942)
(-1.62584e-06 -3.00302e-06 0.107942)
(-1.56538e-06 2.96535e-06 0.107943)
(-1.62157e-06 -3.0141e-06 0.107942)
(7.23637e-05 -7.24283e-05 0.1065)
(-7.91454e-05 7.91849e-05 0.106638)
(-2.94942e-06 -1.55292e-06 0.107943)
(2.95038e-06 -1.55013e-06 0.107943)
(-2.96106e-06 -1.54403e-06 0.107943)
(7.91122e-05 7.91603e-05 0.106638)
(7.23629e-05 7.23543e-05 0.106499)
(-7.91844e-05 -7.9136e-05 0.106638)
(3.01193e-06 1.60989e-06 0.107942)
(-3.05313e-06 1.64896e-06 0.107942)
(3.03251e-06 1.61706e-06 0.107942)
(-3.04762e-06 1.65365e-06 0.107942)
(-7.23746e-05 7.23209e-05 0.1065)
(7.92032e-05 -7.91581e-05 0.106638)
(1.53963e-06 2.95105e-06 0.107943)
(1.61828e-06 -3.03934e-06 0.107942)
(1.55006e-06 2.97419e-06 0.107942)
(1.62832e-06 -3.0497e-06 0.107942)
(-1.62132e-06 -3.01154e-06 0.107942)
(-1.54425e-06 2.96246e-06 0.107943)
(-1.6087e-06 -3.01877e-06 0.107942)
(7.23492e-05 -7.24191e-05 0.106499)
(-7.9144e-05 7.91758e-05 0.106638)
(-2.95511e-06 -1.54456e-06 0.107943)
(2.96005e-06 -1.55398e-06 0.107942)
(-2.95689e-06 -1.53938e-06 0.107942)
(7.91182e-05 7.91595e-05 0.106638)
(7.2378e-05 7.23666e-05 0.106499)
(-7.91838e-05 -7.91196e-05 0.106638)
(3.02268e-06 1.61617e-06 0.107942)
(-3.04672e-06 1.64989e-06 0.107942)
(3.03561e-06 1.62413e-06 0.107942)
(-3.06984e-06 1.66382e-06 0.107942)
(-7.23565e-05 7.23162e-05 0.106499)
(7.91769e-05 -7.91359e-05 0.106638)
(1.54594e-06 2.9692e-06 0.107943)
(1.62204e-06 -3.04086e-06 0.107942)
(1.54842e-06 2.98221e-06 0.107942)
(1.6277e-06 -3.03997e-06 0.107941)
(-1.61413e-06 -3.01616e-06 0.107942)
(-1.55831e-06 2.98058e-06 0.107943)
(-1.62292e-06 -3.03076e-06 0.107942)
(7.23522e-05 -7.24245e-05 0.106499)
(-7.915e-05 7.91762e-05 0.106638)
(-2.95364e-06 -1.54327e-06 0.107942)
(2.95973e-06 -1.55752e-06 0.107942)
(-2.97652e-06 -1.54719e-06 0.107942)
(7.90969e-05 7.91436e-05 0.106638)
(7.23791e-05 7.23872e-05 0.106499)
(-7.91472e-05 -7.91007e-05 0.106638)
(3.0358e-06 1.62867e-06 0.107942)
(-3.06538e-06 1.65776e-06 0.107942)
(3.06778e-06 1.63531e-06 0.107942)
(-3.08168e-06 1.67211e-06 0.107941)
(-7.23826e-05 7.23379e-05 0.106499)
(7.91683e-05 -7.91224e-05 0.106638)
(1.5508e-06 2.98293e-06 0.107942)
(1.62424e-06 -3.03444e-06 0.107942)
(1.57809e-06 3.00567e-06 0.107942)
(1.65058e-06 -3.04436e-06 0.107941)
(-1.62452e-06 -3.02429e-06 0.107942)
(-1.56668e-06 2.99915e-06 0.107942)
(-1.62413e-06 -3.03349e-06 0.107941)
(7.23491e-05 -7.24269e-05 0.106499)
(-7.91276e-05 7.91756e-05 0.106637)
(-2.96991e-06 -1.55309e-06 0.107942)
(2.97601e-06 -1.55699e-06 0.107942)
(-2.97924e-06 -1.55398e-06 0.107942)
(7.90964e-05 7.91403e-05 0.106637)
(7.24082e-05 7.23992e-05 0.106499)
(-7.91418e-05 -7.90995e-05 0.106637)
(3.06398e-06 1.63954e-06 0.107942)
(-3.07385e-06 1.66945e-06 0.107942)
(3.06308e-06 1.63912e-06 0.107941)
(-3.08298e-06 1.68188e-06 0.107941)
(-7.23916e-05 7.23479e-05 0.106499)
(7.9154e-05 -7.91152e-05 0.106638)
(1.58123e-06 2.99665e-06 0.107942)
(1.64854e-06 -3.03971e-06 0.107941)
(1.58538e-06 2.99342e-06 0.107942)
(1.6628e-06 -3.06812e-06 0.107941)
(-1.63079e-06 -3.02456e-06 0.107942)
(-1.58013e-06 2.99486e-06 0.107942)
(-1.63532e-06 -3.04098e-06 0.107941)
(7.23686e-05 -7.24296e-05 0.106499)
(-7.91e-05 7.91383e-05 0.106637)
(-2.96959e-06 -1.55951e-06 0.107942)
(2.98843e-06 -1.58146e-06 0.107942)
(-2.98583e-06 -1.56685e-06 0.107942)
(7.90792e-05 7.91221e-05 0.106637)
(7.23993e-05 7.23824e-05 0.106499)
(-7.91333e-05 -7.909e-05 0.106637)
(3.05103e-06 1.64764e-06 0.107942)
(-3.07533e-06 1.68342e-06 0.107941)
(3.04547e-06 1.63633e-06 0.107941)
(-3.08047e-06 1.67585e-06 0.107941)
(-7.23945e-05 7.2346e-05 0.106499)
(7.91307e-05 -7.91103e-05 0.106638)
(1.58963e-06 2.98262e-06 0.107942)
(1.66432e-06 -3.06469e-06 0.107941)
(1.57819e-06 2.98133e-06 0.107942)
(1.65859e-06 -3.06479e-06 0.107941)
(-1.6487e-06 -3.03666e-06 0.107942)
(-1.58572e-06 2.98338e-06 0.107942)
(-1.6396e-06 -3.03996e-06 0.107941)
(7.2383e-05 -7.24529e-05 0.106499)
(-7.90954e-05 7.91255e-05 0.106637)
(-2.97817e-06 -1.58289e-06 0.107942)
(2.97266e-06 -1.58085e-06 0.107942)
(-2.98424e-06 -1.57212e-06 0.107942)
(7.90612e-05 7.91058e-05 0.106637)
(7.23802e-05 7.23702e-05 0.106498)
(-7.91081e-05 -7.9046e-05 0.106637)
(3.04133e-06 1.66109e-06 0.107942)
(-3.08128e-06 1.69094e-06 0.107941)
(3.04342e-06 1.64042e-06 0.107941)
(-3.09133e-06 1.67384e-06 0.107941)
(-7.23944e-05 7.23266e-05 0.106498)
(7.90793e-05 -7.90758e-05 0.106638)
(1.59165e-06 2.9775e-06 0.107942)
(1.67126e-06 -3.06499e-06 0.107941)
(1.56824e-06 2.9866e-06 0.107942)
(1.65237e-06 -3.07146e-06 0.107941)
(-1.66652e-06 -3.03742e-06 0.107942)
(-1.59816e-06 2.98638e-06 0.107942)
(-1.64988e-06 -3.03848e-06 0.107941)
(7.23613e-05 -7.24361e-05 0.106498)
(-7.9064e-05 7.90876e-05 0.106637)
(-2.98288e-06 -1.59704e-06 0.107942)
(2.97069e-06 -1.57741e-06 0.107942)
(-2.99294e-06 -1.56693e-06 0.107942)
(7.90157e-05 7.90754e-05 0.106637)
(7.23648e-05 7.23681e-05 0.106498)
(-7.9e-05 -7.89514e-05 0.106637)
(3.05931e-06 1.70226e-06 0.107942)
(-3.1114e-06 1.72851e-06 0.107942)
(3.05932e-06 1.65794e-06 0.107941)
(-3.1133e-06 1.70103e-06 0.107941)
(-7.23989e-05 7.23164e-05 0.106498)
(7.89792e-05 -7.89691e-05 0.106638)
(1.62502e-06 3.00407e-06 0.107942)
(1.70407e-06 -3.0903e-06 0.107942)
(1.60362e-06 3.00349e-06 0.107942)
(1.67623e-06 -3.0822e-06 0.107941)
(-1.71586e-06 -3.05646e-06 0.107942)
(-1.62633e-06 2.9974e-06 0.107942)
(-1.67631e-06 -3.05561e-06 0.107941)
(7.23476e-05 -7.24293e-05 0.106498)
(-7.89642e-05 7.89922e-05 0.106637)
(-3.01145e-06 -1.63372e-06 0.107942)
(2.98665e-06 -1.6051e-06 0.107942)
(-3.01188e-06 -1.59873e-06 0.107942)
(7.89195e-05 7.89713e-05 0.106637)
(7.23981e-05 7.23813e-05 0.106499)
(-7.88536e-05 -7.8815e-05 0.106638)
(3.11241e-06 1.78373e-06 0.107942)
(-3.15902e-06 1.81718e-06 0.107942)
(3.08079e-06 1.6738e-06 0.107942)
(-3.07958e-06 1.70874e-06 0.107941)
(-7.24146e-05 7.2343e-05 0.106499)
(7.88836e-05 -7.88386e-05 0.106638)
(1.72779e-06 3.05326e-06 0.107943)
(1.79509e-06 -3.13301e-06 0.107942)
(1.62398e-06 3.00166e-06 0.107942)
(1.69902e-06 -3.06474e-06 0.107941)
(-1.80136e-06 -3.11122e-06 0.107942)
(-1.61368e-06 2.99673e-06 0.107943)
(-1.67025e-06 -3.06981e-06 0.107942)
(7.23714e-05 -7.24442e-05 0.106499)
(-7.88199e-05 7.88756e-05 0.106637)
(-3.06166e-06 -1.73168e-06 0.107942)
(2.99573e-06 -1.60745e-06 0.107942)
(-2.99459e-06 -1.61374e-06 0.107942)
(7.88064e-05 7.88243e-05 0.106637)
(7.23827e-05 7.23523e-05 0.106499)
(-7.87502e-05 -7.87335e-05 0.106638)
(3.17941e-06 1.88793e-06 0.107943)
(-3.16359e-06 1.92016e-06 0.107942)
(3.01293e-06 1.54998e-06 0.107942)
(-2.95524e-06 1.59438e-06 0.107942)
(-7.23419e-05 7.231e-05 0.106499)
(7.88308e-05 -7.87526e-05 0.106638)
(1.84288e-06 3.09908e-06 0.107943)
(1.91292e-06 -3.16445e-06 0.107942)
(1.51522e-06 2.91728e-06 0.107943)
(1.59838e-06 -2.98435e-06 0.107942)
(-1.87678e-06 -3.16624e-06 0.107942)
(-1.45297e-06 2.9089e-06 0.107943)
(-1.52355e-06 -2.9773e-06 0.107942)
(7.23524e-05 -7.23968e-05 0.106499)
(-7.87096e-05 7.87813e-05 0.106638)
(-3.07973e-06 -1.83224e-06 0.107943)
(2.93184e-06 -1.47853e-06 0.107943)
(-2.87322e-06 -1.49144e-06 0.107943)
(7.8747e-05 7.87445e-05 0.106638)
(7.22038e-05 7.21611e-05 0.1065)
(-7.86291e-05 -7.86024e-05 0.106638)
(3.2097e-06 1.92555e-06 0.107943)
(-3.14955e-06 1.96042e-06 0.107943)
(2.85831e-06 1.29802e-06 0.107942)
(-2.82054e-06 1.34069e-06 0.107942)
(-7.21227e-05 7.21185e-05 0.1065)
(7.86903e-05 -7.86307e-05 0.106638)
(1.88546e-06 3.11448e-06 0.107944)
(1.96101e-06 -3.18512e-06 0.107943)
(1.25576e-06 2.77661e-06 0.107943)
(1.33285e-06 -2.83366e-06 0.107942)
(-1.89669e-06 -3.16887e-06 0.107943)
(-1.21815e-06 2.7649e-06 0.107943)
(-1.27949e-06 -2.80405e-06 0.107942)
(7.21806e-05 -7.22105e-05 0.1065)
(-7.86008e-05 7.86489e-05 0.106638)
(-3.06525e-06 -1.86979e-06 0.107944)
(2.77489e-06 -1.23407e-06 0.107943)
(-2.71727e-06 -1.23003e-06 0.107943)
(7.86291e-05 7.86463e-05 0.106638)
(7.18668e-05 7.18353e-05 0.1065)
(-7.83542e-05 -7.8316e-05 0.106637)
(3.24509e-06 1.98594e-06 0.107944)
(-3.21999e-06 2.02059e-06 0.107943)
(2.63757e-06 9.60113e-07 0.107942)
(-2.64415e-06 9.98451e-07 0.107942)
(-7.18103e-05 7.17865e-05 0.1065)
(7.83705e-05 -7.83425e-05 0.106638)
(1.94394e-06 3.16699e-06 0.107944)
(2.00898e-06 -3.22874e-06 0.107943)
(9.08343e-07 2.56238e-06 0.107943)
(9.83979e-07 -2.63027e-06 0.107942)
(-1.97057e-06 -3.18949e-06 0.107944)
(-8.98715e-07 2.55442e-06 0.107943)
(-9.69434e-07 -2.60314e-06 0.107942)
(7.18328e-05 -7.18862e-05 0.1065)
(-7.83277e-05 7.83544e-05 0.106637)
(-3.11179e-06 -1.92035e-06 0.107944)
(2.55806e-06 -9.00573e-07 0.107943)
(-2.54367e-06 -8.90618e-07 0.107943)
(7.83064e-05 7.83533e-05 0.106637)
(7.13914e-05 7.13688e-05 0.106501)
(-7.77328e-05 -7.76824e-05 0.106636)
(3.37977e-06 2.20812e-06 0.107944)
(-3.39474e-06 2.2367e-06 0.107944)
(2.34848e-06 5.37274e-07 0.107942)
(-2.37286e-06 5.67735e-07 0.107942)
(-7.13767e-05 7.13201e-05 0.106501)
(7.77318e-05 -7.77181e-05 0.106636)
(2.1595e-06 3.30955e-06 0.107944)
(2.21876e-06 -3.38017e-06 0.107944)
(4.74678e-07 2.29044e-06 0.107942)
(5.48788e-07 -2.35031e-06 0.107941)
(-2.22074e-06 -3.35296e-06 0.107944)
(-4.90054e-07 2.27508e-06 0.107943)
(-5.6545e-07 -2.33017e-06 0.107942)
(7.13555e-05 -7.14286e-05 0.106501)
(-7.77075e-05 7.77353e-05 0.106636)
(-3.29837e-06 -2.1495e-06 0.107944)
(2.26543e-06 -4.71554e-07 0.107942)
(-2.28388e-06 -4.67011e-07 0.107942)
(7.76566e-05 7.77197e-05 0.106636)
(7.07095e-05 7.07011e-05 0.106503)
(-7.66174e-05 -7.65624e-05 0.106633)
(3.68855e-06 2.71945e-06 0.107944)
(-3.71725e-06 2.7467e-06 0.107944)
(1.86598e-06 -1.07681e-07 0.107941)
(-1.89886e-06 -7.71855e-08 0.107941)
(-7.07112e-05 7.06432e-05 0.106503)
(7.66048e-05 -7.65883e-05 0.106634)
(2.66745e-06 3.63202e-06 0.107945)
(2.72359e-06 -3.69632e-06 0.107944)
(-1.81227e-07 1.81102e-06 0.107941)
(-9.39531e-08 -1.88298e-06 0.107941)
(-2.74901e-06 -3.66934e-06 0.107944)
(1.63154e-07 1.80741e-06 0.107942)
(8.48156e-08 -1.85967e-06 0.107941)
(7.06768e-05 -7.07434e-05 0.106503)
(-7.65768e-05 7.66098e-05 0.106633)
(-3.62849e-06 -2.66335e-06 0.107945)
(1.79761e-06 1.81867e-07 0.107941)
(-1.81034e-06 1.8244e-07 0.107941)
(7.65344e-05 7.65908e-05 0.106633)
(6.94905e-05 6.94875e-05 0.106506)
(-7.45575e-05 -7.45161e-05 0.106627)
(4.20115e-06 3.58206e-06 0.107945)
(-4.23195e-06 3.60895e-06 0.107945)
(1.04854e-06 -1.24523e-06 0.10794)
(-1.07431e-06 -1.20973e-06 0.10794)
(-6.94991e-05 6.94409e-05 0.106506)
(7.45613e-05 -7.45368e-05 0.106628)
(3.52661e-06 4.14444e-06 0.107946)
(3.58994e-06 -4.216e-06 0.107945)
(-1.31415e-06 9.88598e-07 0.10794)
(-1.21941e-06 -1.06197e-06 0.10794)
(-3.59705e-06 -4.19204e-06 0.107945)
(1.31247e-06 9.92546e-07 0.107941)
(1.22501e-06 -1.05469e-06 0.10794)
(6.9477e-05 -6.95299e-05 0.106506)
(-7.45266e-05 7.45623e-05 0.106627)
(-4.14205e-06 -3.52592e-06 0.107946)
(9.79909e-07 1.32338e-06 0.10794)
(-9.92344e-07 1.30969e-06 0.10794)
(7.4487e-05 7.45278e-05 0.106627)
(6.72161e-05 6.7205e-05 0.106512)
(-7.05782e-05 -7.05457e-05 0.106616)
(5.02455e-06 4.93495e-06 0.107947)
(-5.04869e-06 4.97113e-06 0.107947)
(-3.15389e-07 -3.18959e-06 0.107938)
(2.84404e-07 -3.15088e-06 0.107938)
(-6.72108e-05 6.71659e-05 0.106513)
(7.05828e-05 -7.05697e-05 0.106617)
(4.89488e-06 4.95796e-06 0.107948)
(4.95891e-06 -5.03622e-06 0.107947)
(-3.26156e-06 -3.69176e-07 0.107938)
(-3.17151e-06 2.981e-07 0.107938)
(-4.95425e-06 -5.02127e-06 0.107947)
(3.2502e-06 -3.66627e-07 0.107939)
(3.16176e-06 3.12326e-07 0.107938)
(6.71988e-05 -6.72435e-05 0.106512)
(-7.05637e-05 7.05828e-05 0.106616)
(-4.96497e-06 -4.89317e-06 0.107948)
(-3.83423e-07 3.26245e-06 0.107938)
(3.65354e-07 3.26115e-06 0.107938)
(7.05121e-05 7.05632e-05 0.106616)
(6.28222e-05 6.28212e-05 0.106524)
(-6.24362e-05 -6.23988e-05 0.106596)
(6.36272e-06 7.18906e-06 0.10795)
(-6.39002e-06 7.22759e-06 0.10795)
(-2.6112e-06 -6.4778e-06 0.107935)
(2.57759e-06 -6.44926e-06 0.107935)
(-6.28228e-05 6.2779e-05 0.106525)
(6.24348e-05 -6.24199e-05 0.106596)
(7.15091e-06 6.30099e-06 0.107951)
(7.20515e-06 -6.37663e-06 0.10795)
(-6.57534e-06 -2.64542e-06 0.107935)
(-6.47958e-06 2.59222e-06 0.107934)
(-7.21191e-06 -6.34658e-06 0.10795)
(6.54175e-06 -2.64175e-06 0.107936)
(6.46466e-06 2.60926e-06 0.107935)
(6.28042e-05 -6.28525e-05 0.106524)
(-6.24188e-05 6.24288e-05 0.106595)
(-6.30237e-06 -7.14638e-06 0.10795)
(-2.66044e-06 6.56673e-06 0.107935)
(2.65775e-06 6.56471e-06 0.107935)
(6.238e-05 6.24215e-05 0.106595)
(5.38727e-05 5.38991e-05 0.106546)
(-4.56661e-05 -4.56134e-05 0.106561)
(8.66416e-06 1.10224e-05 0.107955)
(-8.69556e-06 1.10686e-05 0.107955)
(-7.31582e-06 -1.29643e-05 0.107929)
(7.28725e-06 -1.29555e-05 0.107929)
(-5.38814e-05 5.38694e-05 0.106546)
(4.56435e-05 -4.56406e-05 0.106561)
(1.09818e-05 8.60949e-06 0.107956)
(1.10438e-05 -8.6736e-06 0.107955)
(-1.30826e-05 -7.31719e-06 0.10793)
(-1.30007e-05 7.28872e-06 0.107929)
(-1.10494e-05 -8.64288e-06 0.107955)
(1.30553e-05 -7.2974e-06 0.10793)
(1.29867e-05 7.29828e-06 0.107929)
(5.38821e-05 -5.39128e-05 0.106546)
(-4.56293e-05 4.56317e-05 0.10656)
(-8.59957e-06 -1.09909e-05 0.107956)
(-7.34034e-06 1.30604e-05 0.10793)
(7.33188e-06 1.30604e-05 0.10793)
(4.56029e-05 4.56175e-05 0.106561)
(3.36776e-05 3.37752e-05 0.106582)
(-4.65956e-05 -4.64166e-05 0.106567)
(1.12048e-05 1.44242e-05 0.107963)
(-1.12406e-05 1.44577e-05 0.107963)
(-3.19974e-05 -5.45538e-05 0.107945)
(3.19824e-05 -5.45785e-05 0.107945)
(-3.37147e-05 3.3747e-05 0.106582)
(4.66181e-05 -4.64293e-05 0.106567)
(1.43422e-05 1.11691e-05 0.107963)
(1.44029e-05 -1.12004e-05 0.107962)
(-5.48221e-05 -3.18994e-05 0.107946)
(-5.47071e-05 3.19832e-05 0.107945)
(-1.4406e-05 -1.11831e-05 0.107963)
(5.47807e-05 -3.19047e-05 0.107946)
(5.46814e-05 3.19877e-05 0.107945)
(3.37206e-05 -3.37488e-05 0.106582)
(-4.65137e-05 4.6586e-05 0.106567)
(-1.11514e-05 -1.4374e-05 0.107963)
(-3.19879e-05 5.47706e-05 0.107946)
(3.19955e-05 5.47968e-05 0.107946)
(4.65089e-05 4.65673e-05 0.106567)
(-3.249e-05 -3.22646e-05 0.106756)
(-2.32476e-05 -3.76242e-05 0.108017)
(2.32075e-05 -3.76249e-05 0.108017)
(3.24726e-05 -3.22981e-05 0.106756)
(-3.78323e-05 -2.31067e-05 0.108018)
(-3.77545e-05 2.32144e-05 0.108017)
(4.19332e-05 -4.18158e-05 0.109033)
(-4.18778e-05 4.19263e-05 0.109033)
(4.19084e-05 4.19697e-05 0.109033)
(3.77592e-05 2.32369e-05 0.108017)
(-3.24105e-05 3.24456e-05 0.106756)
(2.32026e-05 3.78291e-05 0.108018)
(-2.3695e-06 -2.39429e-06 0.10902)
(2.36924e-06 -2.34664e-06 0.10902)
(-2.36171e-06 2.32007e-06 0.109019)
(2.36843e-06 2.34235e-06 0.109019)
(-5.97872e-08 -1.05616e-05 0.094142)
(2.71587e-07 9.76792e-06 0.083566)
(-1.42664e-07 9.76232e-06 0.0940756)
(-2.20934e-06 -8.57785e-06 0.083636)
(-2.61949e-06 4.66751e-06 0.0721783)
(3.08952e-06 -4.12726e-06 0.0722435)
(-1.06221e-05 -4.82447e-08 0.0941407)
(9.66233e-06 2.52133e-07 0.0835648)
(9.78919e-06 -1.16376e-07 0.0940759)
(-8.59517e-06 -2.18815e-06 0.0836365)
(2.36556e-06 -2.35462e-06 0.10902)
(-2.36563e-06 2.35212e-06 0.109019)
(2.36441e-06 2.35527e-06 0.10902)
(-2.37857e-06 -2.37014e-06 0.10902)
(2.36763e-06 -2.35987e-06 0.10902)
(-2.35929e-06 2.36779e-06 0.10902)
(2.3579e-06 2.36275e-06 0.10902)
(2.24515e-05 1.62454e-07 0.102357)
(-1.83675e-05 4.54922e-06 0.0955951)
(-2.13582e-06 -6.20795e-07 0.108654)
(-1.57545e-06 2.95796e-06 0.107944)
(-2.25903e-05 -1.29232e-07 0.102258)
(1.59525e-05 -5.92796e-06 0.0957105)
(-2.1306e-06 -6.11284e-07 0.108654)
(4.5443e-06 -2.61439e-06 0.072175)
(-4.05549e-06 2.99342e-06 0.0722449)
(1.79249e-07 2.24491e-05 0.102357)
(-5.97016e-07 -2.09826e-06 0.108654)
(4.57032e-06 -1.83869e-05 0.0955951)
(2.95994e-06 -1.58124e-06 0.107943)
(-1.304e-07 -2.25325e-05 0.102257)
(-5.93609e-07 -2.11123e-06 0.108654)
(-5.95033e-06 1.60301e-05 0.0957088)
(-6.2929e-06 -5.81304e-06 0.0893878)
(-5.79268e-06 -6.28269e-06 0.0893864)
(7.91471e-05 7.91843e-05 0.106639)
(4.77181e-06 5.56993e-06 0.0894585)
(5.58421e-06 4.78565e-06 0.0894563)
(-6.38679e-08 -1.05763e-05 0.0941419)
(2.48069e-07 9.74856e-06 0.0835657)
(-1.43359e-07 9.7581e-06 0.0940754)
(-2.23503e-06 -8.59328e-06 0.0836358)
(-2.6087e-06 4.66667e-06 0.0721776)
(3.08667e-06 -4.12946e-06 0.0722428)
(-1.06288e-05 -5.28873e-08 0.0941406)
(9.68413e-06 2.36248e-07 0.0835646)
(9.80188e-06 -1.13977e-07 0.0940758)
(-8.58043e-06 -2.21076e-06 0.0836363)
(2.37377e-06 -2.36289e-06 0.10902)
(-2.36088e-06 2.36984e-06 0.10902)
(2.36781e-06 2.36909e-06 0.10902)
(-2.38275e-06 -2.37701e-06 0.10902)
(2.38183e-06 -2.37202e-06 0.10902)
(-2.36303e-06 2.3827e-06 0.10902)
(2.36393e-06 2.37635e-06 0.10902)
(2.24737e-05 1.6894e-07 0.102358)
(-1.8348e-05 4.53426e-06 0.0955952)
(-2.13319e-06 -5.99256e-07 0.108654)
(-1.5776e-06 2.97076e-06 0.107944)