/*--------------------------------*- C++ -*----------------------------------*\
| =========                 |                                                 |
| \\      /  F ield         | OpenFOAM: The Open Source CFD Toolbox           |
|  \\    /   O peration     | Version:  v1912                                 |
|   \\  /    A nd           | Website:  www.openfoam.com                      |
|    \\/     M anipulation  |                                                 |
\*---------------------------------------------------------------------------*/
FoamFile
{
    version     2.0;
    format      ascii;
    class       volScalarField;
    location    "100";
    object      epsilon;
}
// * * * * * * * * * * * * * * * * * * * * * * * * * * * * * * * * * * * * * //

dimensions      [0 2 -3 0 0 0 0];


internalField   nonuniform List<scalar> 
57566
(
1.84153e-05
1.10291e-06
2.23699e-07
1.48615e-07
2.72747e-06
3.50092e-07
5.04347e-06
5.04529e-06
1.84106e-05
1.84134e-05
3.51282e-07
5.04388e-06
5.04558e-06
3.52351e-06
8.82954e-06
3.52373e-06
8.83086e-06
1.10348e-06
2.23722e-07
2.72818e-06
1.48601e-07
1.10367e-06
2.23784e-07
2.72911e-06
1.48624e-07
1.84125e-05
3.51246e-07
5.04539e-06
5.04371e-06
1.84102e-05
3.52345e-06
8.83099e-06
1.10281e-06
2.23777e-07
1.48611e-07
2.72764e-06
3.5238e-06
8.8317e-06
1.10377e-06
2.23714e-07
2.7292e-06
1.48608e-07
3.52357e-06
8.83073e-06
1.10319e-06
2.23787e-07
1.48617e-07
2.72828e-06
1.10273e-06
2.23733e-07
1.48606e-07
2.72738e-06
3.52336e-06
8.83056e-06
1.10366e-06
2.23655e-07
2.72819e-06
1.48607e-07
3.52384e-06
8.83053e-06
1.1031e-06
2.23742e-07
1.48611e-07
2.72795e-06
3.52355e-06
8.83031e-06
3.50097e-07
5.04501e-06
5.04333e-06
1.8414e-05
1.84129e-05
3.51121e-07
5.04524e-06
5.04345e-06
1.84118e-05
1.10296e-06
2.23713e-07
1.48618e-07
2.72816e-06
3.52352e-06
8.83074e-06
3.52351e-06
8.83178e-06
1.10328e-06
2.23708e-07
1.48619e-07
2.72803e-06
1.10336e-06
2.23723e-07
1.48623e-07
2.72866e-06
3.52364e-06
8.8305e-06
3.52365e-06
8.83153e-06
1.84137e-05
1.84152e-05
3.51114e-07
5.04359e-06
5.04539e-06
1.84115e-05
1.8413e-05
1.84132e-05
9.59335e-06
2.19005e-05
2.19001e-05
2.18979e-05
2.18975e-05
9.59292e-06
3.83398e-06
8.9665e-06
5.04399e-06
1.86658e-06
1.86705e-06
8.96627e-06
3.83357e-06
3.8408e-06
8.97146e-06
5.04575e-06
1.86816e-06
1.86862e-06
8.97124e-06
3.84039e-06
1.84126e-05
1.84154e-05
9.59257e-06
2.18973e-05
2.18976e-05
9.59303e-06
2.19001e-05
2.18999e-05
3.83378e-06
8.96626e-06
1.86705e-06
5.04328e-06
3.8342e-06
8.96657e-06
1.86666e-06
3.84022e-06
8.97174e-06
1.86862e-06
5.04521e-06
3.84086e-06
8.97182e-06
1.86815e-06
1.20928e-05
1.06688e-05
4.33126e-06
3.52325e-06
1.20922e-05
1.06691e-05
4.33112e-06
2.23363e-05
7.07718e-06
8.82968e-06
2.23322e-05
7.07685e-06
1.20935e-05
1.06693e-05
4.33142e-06
3.52345e-06
1.2093e-05
1.06696e-05
4.33132e-06
2.23371e-05
7.07878e-06
8.83101e-06
2.23335e-05
7.07861e-06
1.84144e-05
9.59259e-06
2.18971e-05
2.18976e-05
9.59306e-06
2.18997e-05
2.19003e-05
3.84021e-06
8.97122e-06
1.86854e-06
5.04498e-06
1.86816e-06
3.84075e-06
8.97143e-06
3.83349e-06
8.96648e-06
1.86689e-06
5.04319e-06
3.834e-06
8.9667e-06
1.8665e-06
1.84123e-05
1.20931e-05
3.52377e-06
1.06701e-05
4.33111e-06
1.06698e-05
4.3314e-06
1.20936e-05
2.23327e-05
7.07679e-06
8.83083e-06
7.0773e-06
2.23365e-05
1.20933e-05
4.33152e-06
1.06698e-05
3.52362e-06
1.20928e-05
4.33141e-06
1.06701e-05
2.23365e-05
7.07884e-06
8.83185e-06
2.23329e-05
7.07871e-06
1.20934e-05
1.06697e-05
4.33125e-06
3.52339e-06
1.20929e-05
1.06699e-05
4.33102e-06
2.2336e-05
7.077e-06
8.83087e-06
2.23321e-05
7.0766e-06
1.20929e-05
3.52377e-06
1.06698e-05
4.33085e-06
1.06695e-05
4.33104e-06
1.20934e-05
2.2332e-05
7.07612e-06
8.83041e-06
7.07638e-06
2.23356e-05
1.20931e-05
4.33118e-06
1.06697e-05
3.52352e-06
1.20926e-05
4.33105e-06
1.067e-05
2.23354e-05
7.07802e-06
8.83069e-06
2.23318e-05
7.07785e-06
1.20932e-05
1.06694e-05
4.33089e-06
3.5233e-06
1.20927e-05
1.06697e-05
4.33074e-06
2.23351e-05
7.07613e-06
8.83046e-06
2.23315e-05
7.07592e-06
9.59377e-06
2.19008e-05
2.19009e-05
2.18981e-05
2.18983e-05
9.59334e-06
3.84104e-06
8.97137e-06
5.04562e-06
1.86814e-06
8.97114e-06
1.86865e-06
3.84058e-06
3.83433e-06
8.96669e-06
5.0438e-06
1.86671e-06
1.86717e-06
8.96646e-06
3.83386e-06
1.84121e-05
1.84149e-05
9.59313e-06
2.18977e-05
2.18978e-05
9.59337e-06
2.19004e-05
2.19005e-05
3.84063e-06
8.97101e-06
1.86844e-06
5.04491e-06
1.86814e-06
3.84091e-06
8.97124e-06
3.83393e-06
8.96633e-06
1.86698e-06
5.04321e-06
3.8342e-06
8.96655e-06
1.86671e-06
1.84137e-05
1.2093e-05
3.52382e-06
4.33086e-06
1.06704e-05
4.33102e-06
1.06701e-05
1.20935e-05
2.23321e-05
7.07609e-06
8.83059e-06
7.07633e-06
2.23356e-05
1.20929e-05
3.52383e-06
4.3311e-06
1.06705e-05
4.33127e-06
1.06702e-05
1.20934e-05
2.23322e-05
7.07808e-06
8.83163e-06
7.07826e-06
2.23358e-05
1.20933e-05
4.33094e-06
1.067e-05
3.52347e-06
1.20928e-05
4.3308e-06
1.06703e-05
2.23352e-05
7.07609e-06
8.83065e-06
2.23315e-05
7.07588e-06
1.20932e-05
4.33116e-06
1.06701e-05
3.52347e-06
1.20927e-05
4.33101e-06
1.06704e-05
2.23353e-05
7.07802e-06
8.83168e-06
2.23317e-05
7.0779e-06
1.84118e-05
1.84133e-05
9.59271e-06
2.18974e-05
2.1897e-05
9.59296e-06
2.19001e-05
2.18996e-05
3.83367e-06
8.96615e-06
1.86685e-06
5.04333e-06
3.83391e-06
1.86658e-06
8.96638e-06
3.84047e-06
8.9711e-06
1.86843e-06
5.04516e-06
3.84071e-06
1.86816e-06
8.97132e-06
1.84134e-05
1.84149e-05
1.21118e-07
1.0347e-07
1.03468e-07
9.58594e-08
1.21117e-07
1.03469e-07
1.03467e-07
9.58599e-08
1.21112e-07
1.03468e-07
1.03465e-07
9.58546e-08
1.21114e-07
1.03471e-07
1.03467e-07
9.58583e-08
1.21123e-07
1.03472e-07
1.0347e-07
9.58594e-08
1.21121e-07
1.03471e-07
1.03469e-07
9.58599e-08
4.62344e-07
1.10373e-06
3.76172e-07
1.40353e-06
3.76982e-07
1.40451e-06
4.61026e-07
6.46359e-07
2.01045e-06
2.72843e-06
9.83606e-07
9.8476e-07
2.01162e-06
6.44887e-07
1.66614e-06
3.51267e-07
7.45671e-07
7.45985e-07
7.46893e-07
7.47226e-07
1.66512e-06
1.6651e-06
3.5012e-07
7.46987e-07
7.47301e-07
1.66612e-06
7.45783e-07
7.46039e-07
4.60822e-07
1.40439e-06
3.76916e-07
1.10266e-06
4.62135e-07
1.40342e-06
3.76159e-07
6.44719e-07
2.01247e-06
9.84815e-07
2.72729e-06
9.83694e-07
6.46198e-07
2.01157e-06
4.61001e-07
1.4048e-06
3.76981e-07
1.10286e-06
4.62311e-07
1.40384e-06
3.76224e-07
6.45014e-07
2.01318e-06
9.85247e-07
2.72821e-06
6.46493e-07
2.01229e-06
9.84105e-07
1.66497e-06
3.50077e-07
7.4723e-07
7.46927e-07
7.45991e-07
1.666e-06
7.45686e-07
4.62322e-07
1.10366e-06
3.76193e-07
1.40376e-06
3.76974e-07
1.40461e-06
4.61018e-07
6.46425e-07
2.01059e-06
2.72873e-06
9.8396e-07
2.01175e-06
6.44952e-07
9.85136e-07
4.60976e-07
1.40474e-06
3.76988e-07
1.10291e-06
4.62296e-07
1.40375e-06
3.76221e-07
6.44881e-07
2.013e-06
9.85233e-07
2.72814e-06
9.84041e-07
6.46404e-07
2.01192e-06
4.61124e-07
3.76801e-07
1.40428e-06
1.10265e-06
4.62187e-07
3.76185e-07
1.40366e-06
6.44987e-07
2.01145e-06
9.84919e-07
2.72754e-06
6.46202e-07
2.01079e-06
9.84e-07
4.62301e-07
1.10356e-06
3.76145e-07
1.40374e-06
3.76923e-07
1.40461e-06
4.61003e-07
6.46354e-07
2.01056e-06
2.72836e-06
9.83598e-07
9.84752e-07
2.01198e-06
6.44885e-07
4.60939e-07
1.40458e-06
3.76944e-07
1.10282e-06
4.62263e-07
1.4036e-06
3.76171e-07
6.44809e-07
2.01281e-06
9.84676e-07
2.72717e-06
6.46303e-07
9.8352e-07
2.01187e-06
4.61108e-07
3.76751e-07
1.40428e-06
1.10256e-06
4.62172e-07
3.76138e-07
1.40364e-06
6.4492e-07
2.01137e-06
9.84544e-07
2.72723e-06
6.4613e-07
2.01069e-06
9.83643e-07
1.66626e-06
3.51264e-07
7.45983e-07
7.45762e-07
7.46991e-07
7.47229e-07
1.66524e-06
1.66512e-06
3.50016e-07
7.46927e-07
7.46695e-07
7.46018e-07
1.66592e-06
7.45797e-07
4.62451e-07
1.10381e-06
3.76288e-07
1.40399e-06
3.7707e-07
1.40487e-06
4.61141e-07
6.46556e-07
2.01097e-06
2.7291e-06
9.83966e-07
9.85138e-07
2.01211e-06
6.45078e-07
4.61112e-07
3.7679e-07
1.40405e-06
1.10273e-06
4.62193e-07
3.7617e-07
1.40333e-06
6.4492e-07
2.01132e-06
9.84556e-07
2.72733e-06
6.4614e-07
9.83654e-07
2.01063e-06
4.61245e-07
3.76899e-07
1.40453e-06
1.10279e-06
4.62316e-07
3.76274e-07
1.40388e-06
6.45109e-07
2.01182e-06
9.84923e-07
2.72789e-06
6.46338e-07
2.01117e-06
9.84009e-07
1.66501e-06
3.50006e-07
7.46604e-07
7.46927e-07
1.66581e-06
7.4571e-07
7.46023e-07
1.8411e-05
1.84129e-05
3.51521e-07
5.04455e-06
5.04627e-06
3.52518e-06
8.83012e-06
3.52531e-06
1.1034e-06
2.2397e-07
2.7289e-06
1.48679e-07
1.10357e-06
1.487e-07
3.52544e-06
8.83184e-06
1.10369e-06
2.23946e-07
2.7294e-06
1.48694e-07
3.52538e-06
8.8312e-06
1.10371e-06
2.23999e-07
1.48703e-07
2.72942e-06
1.84129e-05
3.51517e-07
5.04633e-06
5.04451e-06
1.84117e-05
1.10371e-06
2.23937e-07
1.48692e-07
2.72897e-06
1.10373e-06
1.48689e-07
3.52545e-06
8.83096e-06
3.52547e-06
1.84132e-05
1.84151e-05
9.59223e-06
2.18963e-05
2.18967e-05
9.59236e-06
2.18992e-05
2.18996e-05
3.83581e-06
8.96766e-06
1.86849e-06
5.04443e-06
3.83605e-06
8.96785e-06
1.86816e-06
3.84143e-06
8.97201e-06
1.87029e-06
5.04613e-06
3.84165e-06
8.97224e-06
1.86993e-06
1.2093e-05
1.06689e-05
4.33258e-06
3.5249e-06
1.20923e-05
1.06692e-05
4.33233e-06
2.23361e-05
7.07771e-06
8.83022e-06
2.2332e-05
7.07739e-06
1.20936e-05
1.06694e-05
4.33276e-06
3.52504e-06
1.2093e-05
1.06698e-05
4.33257e-06
1.20935e-05
4.33284e-06
1.06698e-05
3.52521e-06
1.20929e-05
4.33265e-06
1.06702e-05
2.23361e-05
7.07915e-06
8.83202e-06
2.23323e-05
7.07912e-06
1.20938e-05
1.06699e-05
4.33273e-06
3.52518e-06
1.20932e-05
1.06702e-05
4.33248e-06
2.23365e-05
7.07773e-06
8.83137e-06
2.23324e-05
7.07746e-06
1.84152e-05
9.59391e-06
2.18977e-05
2.18978e-05
9.59399e-06
2.19007e-05
2.19008e-05
3.84188e-06
8.97191e-06
1.87001e-06
5.04606e-06
1.86963e-06
3.84209e-06
8.97212e-06
3.83514e-06
8.96716e-06
1.86854e-06
5.04438e-06
3.83536e-06
8.96741e-06
1.86819e-06
1.84139e-05
1.20935e-05
4.33251e-06
1.06698e-05
3.52515e-06
1.20929e-05
4.33224e-06
1.06702e-05
2.23357e-05
7.07695e-06
8.83113e-06
2.23319e-05
7.07686e-06
1.20932e-05
4.33286e-06
1.067e-05
3.52526e-06
1.20925e-05
4.33259e-06
1.06703e-05
1.21134e-07
1.03438e-07
1.0344e-07
9.57802e-08
1.03445e-07
9.57841e-08
1.21152e-07
1.03446e-07
1.03448e-07
9.57865e-08
1.03442e-07
9.57855e-08
1.66615e-06
3.50448e-07
7.47716e-07
7.48263e-07
1.66627e-06
7.46628e-07
7.47156e-07
4.6148e-07
1.40432e-06
3.77171e-07
1.10333e-06
4.62582e-07
1.40411e-06
3.76508e-07
6.4547e-07
2.01245e-06
9.85806e-07
2.72845e-06
9.84699e-07
6.46644e-07
2.01156e-06
4.61609e-07
1.4047e-06
3.77238e-07
1.1035e-06
4.62727e-07
1.40445e-06
3.76576e-07
4.61631e-07
1.40467e-06
3.77271e-07
1.10361e-06
4.6274e-07
1.40443e-06
3.76611e-07
6.45661e-07
2.01301e-06
9.86192e-07
2.7288e-06
9.8507e-07
6.46846e-07
2.01213e-06
4.61617e-07
3.77283e-07
1.40456e-06
1.10365e-06
4.62715e-07
3.76627e-07
1.40434e-06
6.45599e-07
2.0126e-06
9.86167e-07
2.72882e-06
6.46779e-07
2.01171e-06
9.85039e-07
1.66616e-06
3.5044e-07
7.48049e-07
7.47813e-07
7.46951e-07
1.66624e-06
7.46726e-07
4.61624e-07
3.77276e-07
1.40449e-06
1.10362e-06
4.62725e-07
3.76615e-07
1.40425e-06
6.45525e-07
2.0124e-06
9.85816e-07
2.72855e-06
6.46723e-07
9.84695e-07
2.01153e-06
4.61592e-07
3.77262e-07
1.40465e-06
1.10367e-06
4.62708e-07
3.76605e-07
1.40439e-06
1.21133e-07
2.23876e-07
2.23936e-07
3.51563e-07
1.21132e-07
2.23885e-07
2.23937e-07
3.51548e-07
2.23972e-07
2.24019e-07
2.24014e-07
2.24018e-07
3.51495e-07
3.50385e-07
2.23958e-07
2.23879e-07
2.23959e-07
2.23928e-07
2.2394e-07
2.2393e-07
3.50396e-07
3.51541e-07
2.23973e-07
2.24006e-07
3.51466e-07
2.23943e-07
2.23984e-07
2.23953e-07
3.51537e-07
2.23925e-07
3.52494e-06
8.83012e-06
3.52515e-06
8.83063e-06
1.84123e-05
1.84144e-05
1.21134e-07
1.21149e-07
1.21137e-07
1.21132e-07
1.21135e-07
1.21149e-07
1.21138e-07
1.10303e-06
2.72875e-06
1.48681e-07
2.2387e-07
2.72795e-06
1.48681e-07
1.10359e-06
1.10315e-06
1.48696e-07
2.72901e-06
2.23945e-07
1.48693e-07
1.10372e-06
2.72825e-06
5.04454e-06
5.04635e-06
3.50434e-07
5.0443e-06
5.04613e-06
3.52486e-06
8.83025e-06
3.52515e-06
8.83029e-06
1.84123e-05
1.84145e-05
3.52516e-06
8.83174e-06
8.83202e-06
3.52541e-06
1.21136e-07
1.21152e-07
1.21141e-07
1.10372e-06
2.72876e-06
1.48682e-07
2.23886e-07
1.1036e-06
2.72823e-06
1.48682e-07
1.84129e-05
1.84151e-05
1.10314e-06
1.48692e-07
2.72899e-06
2.23936e-07
1.10372e-06
1.48691e-07
2.72822e-06
5.04453e-06
5.04635e-06
3.50449e-07
5.04435e-06
5.0462e-06
3.52507e-06
8.83118e-06
8.83136e-06
3.52528e-06
1.10287e-06
2.72892e-06
1.4868e-07
2.24027e-07
1.48681e-07
1.10341e-06
2.72844e-06
1.10302e-06
2.72931e-06
1.48701e-07
2.24014e-07
2.72855e-06
1.487e-07
1.10358e-06
3.52509e-06
8.83043e-06
3.52484e-06
8.83042e-06
3.52515e-06
8.83137e-06
8.83115e-06
3.52499e-06
1.10325e-06
2.23995e-07
2.72826e-06
1.48682e-07
1.48681e-07
1.10285e-06
2.72901e-06
1.10341e-06
2.24015e-07
2.72856e-06
1.48699e-07
2.72914e-06
1.48701e-07
1.10302e-06
5.04605e-06
5.04438e-06
3.50371e-07
5.04582e-06
5.04408e-06
1.84098e-05
1.84121e-05
1.84145e-05
1.84123e-05
3.51444e-07
5.04586e-06
5.04412e-06
5.04596e-06
5.04433e-06
1.84121e-05
1.84099e-05
3.52507e-06
8.83084e-06
8.83101e-06
3.52535e-06
1.10304e-06
1.48688e-07
2.72895e-06
2.23948e-07
1.48688e-07
2.72817e-06
1.10361e-06
3.52499e-06
8.83076e-06
8.83094e-06
3.52526e-06
1.10341e-06
2.23874e-07
2.72796e-06
1.48681e-07
2.72858e-06
1.48681e-07
1.10304e-06
3.52522e-06
8.83103e-06
8.83081e-06
3.52511e-06
1.10342e-06
2.23953e-07
1.48688e-07
2.72817e-06
1.48688e-07
2.72877e-06
1.10305e-06
3.52514e-06
8.83094e-06
8.83073e-06
3.52504e-06
1.10317e-06
1.48687e-07
2.72939e-06
2.23917e-07
1.48686e-07
2.72863e-06
1.10373e-06
3.52507e-06
8.83103e-06
3.52536e-06
8.83117e-06
3.52513e-06
8.83177e-06
8.83195e-06
3.52538e-06
1.10353e-06
2.23958e-07
1.48692e-07
2.72824e-06
1.48693e-07
1.10315e-06
2.72888e-06
1.10354e-06
2.23922e-07
1.48686e-07
2.72863e-06
1.48686e-07
2.72921e-06
1.10317e-06
3.52523e-06
8.83113e-06
3.52512e-06
8.83097e-06
3.52522e-06
8.83195e-06
8.83174e-06
3.52517e-06
1.84115e-05
1.84136e-05
1.84129e-05
1.8415e-05
3.51442e-07
5.04429e-06
5.04612e-06
5.04444e-06
5.04624e-06
1.84136e-05
1.84116e-05
1.8415e-05
1.84129e-05
1.84114e-05
1.84131e-05
1.84126e-05
1.8415e-05
5.04484e-06
5.0462e-06
3.50423e-07
5.04432e-06
5.04605e-06
3.525e-06
8.83116e-06
3.52512e-06
8.83137e-06
1.10283e-06
2.72881e-06
1.48678e-07
2.23969e-07
1.10321e-06
2.72814e-06
1.48677e-07
1.103e-06
2.72915e-06
1.48699e-07
2.2401e-07
1.10338e-06
2.72907e-06
1.48699e-07
5.04599e-06
5.04436e-06
3.5039e-07
5.04592e-06
5.0441e-06
1.84099e-05
1.8412e-05
1.10312e-06
2.72937e-06
1.48693e-07
2.23943e-07
2.72864e-06
1.48693e-07
1.10367e-06
3.52512e-06
8.83119e-06
8.83137e-06
3.52539e-06
1.10315e-06
1.48702e-07
2.72939e-06
2.23995e-07
1.48701e-07
2.7286e-06
1.10371e-06
3.52518e-06
8.83082e-06
3.52526e-06
8.83102e-06
1.10373e-06
1.48689e-07
2.72877e-06
2.23955e-07
1.10343e-06
1.48689e-07
2.7287e-06
3.52512e-06
8.83073e-06
3.52519e-06
8.83093e-06
5.04624e-06
5.04454e-06
3.50421e-07
5.04595e-06
5.04427e-06
1.84117e-05
1.84139e-05
1.10317e-06
1.48688e-07
2.72922e-06
2.23927e-07
1.10354e-06
1.48689e-07
2.72914e-06
3.52515e-06
8.83093e-06
3.52532e-06
8.83113e-06
3.52521e-06
8.83175e-06
3.52526e-06
8.83196e-06
1.84115e-05
1.84136e-05
1.84129e-05
1.8415e-05
1.20925e-05
1.06693e-05
3.52514e-06
4.33244e-06
1.06689e-05
4.33263e-06
1.20931e-05
2.23363e-05
7.07767e-06
8.83037e-06
7.0775e-06
2.2332e-05
1.2093e-05
3.52475e-06
1.06688e-05
4.33264e-06
1.06692e-05
4.33243e-06
1.20923e-05
2.23323e-05
7.07748e-06
8.83035e-06
7.07763e-06
2.23363e-05
1.84144e-05
1.84123e-05
9.59366e-06
2.19004e-05
2.19e-05
2.18975e-05
2.1897e-05
9.5935e-06
3.8349e-06
1.86838e-06
5.04426e-06
8.96702e-06
1.86793e-06
8.96724e-06
3.83515e-06
3.8416e-06
1.86991e-06
5.04609e-06
8.97192e-06
1.86947e-06
8.97213e-06
3.84184e-06
3.83506e-06
8.96726e-06
5.04449e-06
1.86798e-06
1.86827e-06
8.96699e-06
3.83479e-06
3.84175e-06
8.97215e-06
5.0463e-06
1.86952e-06
1.86979e-06
8.97188e-06
3.84148e-06
9.5935e-06
2.18975e-05
2.1897e-05
2.19004e-05
2.19e-05
9.59363e-06
1.20923e-05
3.52507e-06
1.06692e-05
4.33234e-06
1.06689e-05
4.33252e-06
1.2093e-05
2.23361e-05
7.07763e-06
8.83033e-06
2.23319e-05
7.0773e-06
1.2093e-05
3.52475e-06
1.06689e-05
4.33259e-06
1.20923e-05
1.06692e-05
4.33231e-06
2.2332e-05
7.07734e-06
8.83009e-06
7.07763e-06
2.23361e-05
1.84145e-05
1.84124e-05
1.20929e-05
4.33269e-06
1.06702e-05
3.52532e-06
4.33281e-06
1.06698e-05
1.20935e-05
2.23361e-05
8.83198e-06
7.07915e-06
7.07908e-06
2.23323e-05
2.23323e-05
7.07911e-06
8.8318e-06
7.07913e-06
2.23361e-05
1.20935e-05
3.52505e-06
4.33282e-06
1.06698e-05
4.33267e-06
1.06702e-05
1.20929e-05
1.84151e-05
1.84129e-05
9.59371e-06
2.19004e-05
2.19e-05
2.18975e-05
2.18971e-05
9.59362e-06
3.8349e-06
1.86836e-06
8.96701e-06
5.04423e-06
3.83515e-06
1.86791e-06
8.96723e-06
3.84162e-06
1.8699e-06
8.97191e-06
5.04608e-06
3.84184e-06
1.86946e-06
8.97213e-06
9.59355e-06
2.18975e-05
2.1897e-05
9.59366e-06
2.19004e-05
2.19e-05
3.83507e-06
8.96724e-06
5.04447e-06
1.86796e-06
1.86825e-06
8.96698e-06
3.83487e-06
3.84179e-06
8.97217e-06
5.04631e-06
1.86952e-06
1.86979e-06
8.9719e-06
3.84159e-06
1.2093e-05
1.06698e-05
4.33252e-06
3.52523e-06
1.06694e-05
4.33263e-06
1.20936e-05
2.23365e-05
8.83134e-06
7.07911e-06
7.07895e-06
2.23326e-05
2.23327e-05
7.07901e-06
8.83116e-06
7.07908e-06
2.23365e-05
1.20936e-05
3.52491e-06
1.06693e-05
4.3327e-06
1.06697e-05
4.33251e-06
1.20929e-05
1.20931e-05
1.0669e-05
3.52481e-06
4.33262e-06
1.20925e-05
1.06694e-05
4.33241e-06
2.23322e-05
7.07728e-06
8.83022e-06
2.23361e-05
7.07761e-06
1.20924e-05
3.52505e-06
1.06692e-05
4.33236e-06
1.2093e-05
1.06689e-05
4.33257e-06
2.23363e-05
7.07764e-06
8.83047e-06
2.23323e-05
7.07741e-06
1.20936e-05
1.06695e-05
4.33263e-06
3.52495e-06
1.2093e-05
1.06698e-05
4.33249e-06
2.23326e-05
8.83116e-06
7.07897e-06
7.07912e-06
2.23366e-05
2.23365e-05
7.07911e-06
8.83134e-06
2.23326e-05
7.07896e-06
1.2093e-05
3.5252e-06
1.06698e-05
4.33253e-06
1.06695e-05
4.33266e-06
1.20936e-05
9.59323e-06
2.18997e-05
2.19001e-05
2.18968e-05
2.18972e-05
9.59308e-06
3.84153e-06
1.86997e-06
5.04577e-06
8.97188e-06
8.97209e-06
1.86952e-06
3.84179e-06
3.83476e-06
1.8683e-06
5.04402e-06
8.96711e-06
1.86785e-06
8.96732e-06
3.83501e-06
3.84169e-06
8.97211e-06
5.046e-06
1.86957e-06
8.97184e-06
1.86985e-06
3.84141e-06
3.83491e-06
8.96735e-06
5.04434e-06
1.86789e-06
1.86818e-06
8.96708e-06
3.83464e-06
9.59309e-06
2.18968e-05
2.18972e-05
2.18997e-05
2.19002e-05
9.5932e-06
1.84121e-05
1.84098e-05
1.84123e-05
1.84144e-05
9.59309e-06
2.18968e-05
2.18972e-05
9.5932e-06
2.18997e-05
2.19001e-05
3.84181e-06
1.86957e-06
5.04602e-06
8.97212e-06
1.86986e-06
8.97184e-06
3.84141e-06
3.83506e-06
1.86788e-06
5.04438e-06
8.96737e-06
8.96709e-06
1.86817e-06
3.83466e-06
3.84149e-06
8.97181e-06
1.86982e-06
5.04578e-06
1.86952e-06
3.84173e-06
8.97208e-06
3.83473e-06
8.96705e-06
1.86813e-06
5.04406e-06
3.83497e-06
8.96733e-06
1.86782e-06
9.59317e-06
2.18997e-05
2.19001e-05
2.18968e-05
2.18972e-05
9.59305e-06
1.84099e-05
1.84121e-05
1.20927e-05
4.33231e-06
1.06701e-05
3.52527e-06
4.33246e-06
1.06697e-05
1.20933e-05
2.23352e-05
8.83101e-06
7.07847e-06
7.07837e-06
2.23313e-05
2.23314e-05
7.0784e-06
8.83082e-06
7.07844e-06
2.23352e-05
1.20933e-05
3.52494e-06
4.3325e-06
1.06697e-05
4.33233e-06
1.06701e-05
1.20926e-05
1.20931e-05
1.06699e-05
4.3322e-06
3.52519e-06
1.06696e-05
4.33235e-06
1.20936e-05
2.23355e-05
8.83093e-06
7.07689e-06
7.07673e-06
2.23317e-05
2.23317e-05
7.07673e-06
8.83075e-06
7.07688e-06
2.23355e-05
1.20937e-05
3.52486e-06
1.06696e-05
4.33243e-06
1.06699e-05
4.33222e-06
1.20931e-05
1.20933e-05
4.33243e-06
1.06697e-05
3.52499e-06
1.20927e-05
4.3323e-06
1.06701e-05
2.23314e-05
8.83084e-06
7.07839e-06
7.07845e-06
2.23353e-05
2.23352e-05
7.07843e-06
8.83101e-06
2.23314e-05
7.07838e-06
1.20927e-05
3.5253e-06
4.33234e-06
1.06701e-05
4.33246e-06
1.06698e-05
1.20933e-05
1.20936e-05
1.06696e-05
4.33231e-06
3.52492e-06
1.2093e-05
1.067e-05
4.33217e-06
2.23316e-05
8.83075e-06
7.07671e-06
7.07686e-06
2.23355e-05
2.23355e-05
7.07686e-06
8.83092e-06
2.23316e-05
7.07671e-06
1.2093e-05
3.52523e-06
1.067e-05
4.3322e-06
1.06696e-05
4.33233e-06
1.20936e-05
1.2093e-05
1.06702e-05
3.52526e-06
4.33221e-06
4.33241e-06
1.06699e-05
1.20936e-05
2.23358e-05
7.07696e-06
8.83118e-06
7.07684e-06
2.23319e-05
1.20936e-05
3.52493e-06
4.3325e-06
1.06699e-05
4.33222e-06
1.06702e-05
1.2093e-05
2.2332e-05
7.07687e-06
8.831e-06
7.07695e-06
2.23358e-05
1.20925e-05
4.33249e-06
1.06703e-05
3.52528e-06
4.33271e-06
1.067e-05
1.20931e-05
2.23352e-05
8.83194e-06
7.07908e-06
7.07873e-06
2.2331e-05
2.23311e-05
7.07874e-06
8.83175e-06
7.07908e-06
2.23352e-05
1.20931e-05
3.52502e-06
4.33277e-06
1.067e-05
4.33249e-06
1.06703e-05
1.20924e-05
1.20936e-05
1.06699e-05
3.52499e-06
4.33239e-06
1.2093e-05
4.33216e-06
1.06702e-05
2.23319e-05
7.07685e-06
8.83093e-06
7.07694e-06
2.23358e-05
1.2093e-05
3.52532e-06
4.33219e-06
1.06702e-05
4.33239e-06
1.06699e-05
1.20935e-05
2.23358e-05
7.07693e-06
8.83114e-06
2.23319e-05
7.07686e-06
1.20931e-05
4.33269e-06
1.067e-05
3.52505e-06
1.20925e-05
4.33246e-06
1.06703e-05
2.2331e-05
8.83176e-06
7.07873e-06
7.07907e-06
2.23352e-05
2.23352e-05
7.07907e-06
8.83194e-06
2.2331e-05
7.07872e-06
1.20925e-05
3.52532e-06
4.33252e-06
1.06703e-05
4.33272e-06
1.067e-05
1.20931e-05
1.84137e-05
1.84115e-05
1.8415e-05
1.84129e-05
9.59353e-06
2.18975e-05
2.18971e-05
9.59364e-06
2.19004e-05
2.19e-05
3.83521e-06
1.868e-06
5.04448e-06
8.96726e-06
3.8348e-06
1.86827e-06
8.96698e-06
3.8419e-06
1.86954e-06
5.0463e-06
8.97215e-06
3.8415e-06
1.86981e-06
8.97187e-06
3.83487e-06
8.96695e-06
1.86823e-06
5.04424e-06
3.83512e-06
1.86793e-06
8.96723e-06
3.84157e-06
8.97184e-06
1.86975e-06
5.04607e-06
3.8418e-06
1.86947e-06
8.97211e-06
9.59363e-06
2.19004e-05
2.18999e-05
9.59351e-06
2.18975e-05
2.1897e-05
1.84115e-05
1.84137e-05
1.84129e-05
1.8415e-05
1.84133e-05
1.8411e-05
1.8415e-05
1.84129e-05
9.59243e-06
2.18993e-05
2.18997e-05
2.18965e-05
2.18964e-05
9.59223e-06
3.83607e-06
1.86882e-06
5.0443e-06
8.96872e-06
8.96819e-06
1.86814e-06
3.83721e-06
3.8411e-06
1.87017e-06
5.04599e-06
8.97088e-06
8.97179e-06
1.8699e-06
3.8412e-06
3.83614e-06
8.96792e-06
5.0445e-06
1.86815e-06
8.96769e-06
3.83579e-06
1.86841e-06
3.84155e-06
8.97223e-06
5.04624e-06
1.86998e-06
8.9718e-06
3.84131e-06
1.87026e-06
9.59224e-06
2.18973e-05
2.18962e-05
2.18997e-05
2.18993e-05
9.59263e-06
1.2093e-05
3.52521e-06
1.06698e-05
4.33259e-06
1.06694e-05
4.3327e-06
1.20936e-05
2.23365e-05
7.07911e-06
8.83134e-06
2.23327e-05
7.07897e-06
1.20936e-05
3.52491e-06
1.06694e-05
4.33266e-06
1.06698e-05
1.2093e-05
4.33254e-06
2.23327e-05
7.07904e-06
8.83116e-06
7.0791e-06
2.23366e-05
9.59321e-06
2.18996e-05
2.19e-05
2.18967e-05
2.18971e-05
9.59312e-06
3.84148e-06
1.86981e-06
8.97181e-06
5.04583e-06
8.97208e-06
3.84173e-06
1.8695e-06
3.83474e-06
1.86814e-06
8.96706e-06
5.04407e-06
1.86785e-06
3.83499e-06
8.96733e-06
9.59307e-06
2.18968e-05
2.18972e-05
2.18997e-05
9.59318e-06
2.19001e-05
3.84164e-06
8.97209e-06
5.04606e-06
1.86955e-06
8.97183e-06
1.86984e-06
3.84143e-06
3.83489e-06
8.96733e-06
5.04437e-06
1.86789e-06
1.86819e-06
8.96707e-06
3.8347e-06
1.84121e-05
1.84098e-05
1.20932e-05
1.06702e-05
4.33251e-06
3.52528e-06
1.06699e-05
4.33269e-06
1.20938e-05
2.23365e-05
8.83135e-06
7.07772e-06
7.07741e-06
2.23323e-05
2.23324e-05
7.07742e-06
8.83117e-06
7.07772e-06
2.23365e-05
1.20938e-05
3.52502e-06
1.06699e-05
4.33274e-06
1.06702e-05
4.33249e-06
1.20932e-05
1.20928e-05
3.52538e-06
4.33242e-06
1.06701e-05
4.33252e-06
1.06698e-05
1.20933e-05
2.23353e-05
7.07844e-06
8.83101e-06
7.07838e-06
2.23314e-05
1.20933e-05
3.52506e-06
4.33247e-06
1.06698e-05
4.33236e-06
1.20927e-05
1.06701e-05
2.23314e-05
7.07842e-06
8.83083e-06
7.07845e-06
2.23353e-05
1.2093e-05
3.52532e-06
1.067e-05
4.33227e-06
1.06697e-05
4.33237e-06
1.20936e-05
2.23355e-05
7.07685e-06
8.83092e-06
2.23316e-05
7.0767e-06
1.20936e-05
3.52499e-06
1.06696e-05
4.33233e-06
1.2093e-05
1.067e-05
4.33221e-06
2.23317e-05
7.07677e-06
8.83074e-06
7.07685e-06
2.23355e-05
9.59403e-06
2.19007e-05
2.19007e-05
2.18977e-05
2.18978e-05
9.59386e-06
3.84186e-06
1.87001e-06
5.0459e-06
8.9718e-06
8.97207e-06
1.86957e-06
3.8421e-06
3.83503e-06
1.86854e-06
5.04423e-06
8.96719e-06
1.86809e-06
8.96736e-06
3.83529e-06
3.84199e-06
8.97211e-06
5.04621e-06
1.86963e-06
8.97182e-06
1.86989e-06
3.84174e-06
3.83525e-06
8.9674e-06
5.04447e-06
1.86816e-06
1.86844e-06
8.96712e-06
3.83497e-06
9.5939e-06
2.18975e-05
2.18978e-05
2.19007e-05
2.19008e-05
9.59404e-06
1.84139e-05
1.84118e-05
1.20929e-05
3.5254e-06
4.33227e-06
1.06702e-05
4.33245e-06
1.06699e-05
1.20935e-05
2.23357e-05
7.07693e-06
8.83112e-06
7.07682e-06
2.23319e-05
1.20935e-05
3.52509e-06
4.33239e-06
1.06699e-05
4.33221e-06
1.20929e-05
1.06702e-05
2.23319e-05
7.07684e-06
8.83094e-06
7.07694e-06
2.23357e-05
1.20925e-05
3.52537e-06
4.3326e-06
1.06703e-05
4.33279e-06
1.067e-05
1.20931e-05
2.23352e-05
7.07907e-06
8.83195e-06
2.23311e-05
7.07873e-06
1.20931e-05
3.52511e-06
4.33273e-06
1.067e-05
1.20925e-05
4.33253e-06
1.06703e-05
2.23311e-05
7.07881e-06
8.83176e-06
7.07908e-06
2.23352e-05
1.84136e-05
1.84115e-05
1.8415e-05
1.84129e-05
1.03438e-07
1.03435e-07
1.21133e-07
1.03442e-07
1.03438e-07
9.57798e-08
9.57801e-08
1.66545e-06
7.4773e-07
7.48034e-07
3.50488e-07
7.46652e-07
7.4695e-07
1.66614e-06
1.03437e-07
1.03436e-07
1.21134e-07
1.03438e-07
1.03439e-07
9.57795e-08
9.57798e-08
1.66544e-06
7.47728e-07
7.48022e-07
3.50477e-07
1.66614e-06
7.46655e-07
7.46937e-07
1.66538e-06
7.48015e-07
7.47703e-07
3.50382e-07
7.46612e-07
7.46928e-07
1.66609e-06
1.66618e-06
3.51464e-07
7.46994e-07
7.46671e-07
7.4794e-07
7.47619e-07
1.66526e-06
1.66624e-06
3.51425e-07
7.46725e-07
7.47011e-07
1.66533e-06
7.47657e-07
7.47951e-07
1.66553e-06
7.47805e-07
7.48181e-07
3.50434e-07
7.46655e-07
7.47183e-07
1.66621e-06
1.66536e-06
7.47868e-07
7.47548e-07
3.50366e-07
7.46605e-07
1.66607e-06
7.46924e-07
1.66553e-06
7.48049e-07
7.4781e-07
3.50433e-07
7.46738e-07
7.4697e-07
1.66623e-06
1.03442e-07
1.03436e-07
1.21136e-07
1.03444e-07
1.03438e-07
9.57826e-08
9.57832e-08
1.03441e-07
1.03444e-07
1.21151e-07
1.03449e-07
1.03444e-07
9.5785e-08
9.57859e-08
1.03441e-07
1.03439e-07
1.21138e-07
1.03444e-07
1.03441e-07
9.57836e-08
9.57841e-08
1.21133e-07
1.03438e-07
1.03436e-07
1.03441e-07
1.03436e-07
9.57831e-08
9.57824e-08
1.21135e-07
1.03442e-07
1.03437e-07
1.03443e-07
1.03437e-07
9.57856e-08
9.57855e-08
1.2115e-07
1.03441e-07
1.03445e-07
1.03447e-07
1.03443e-07
9.5788e-08
9.57878e-08
1.21138e-07
1.03442e-07
1.03439e-07
1.03443e-07
1.0344e-07
9.57866e-08
9.57863e-08
4.62719e-07
1.40381e-06
3.76578e-07
1.10349e-06
1.40441e-06
3.77196e-07
4.61529e-07
6.45449e-07
9.85606e-07
2.72787e-06
2.01269e-06
9.84486e-07
2.01175e-06
6.46699e-07
6.46675e-07
2.01184e-06
2.72866e-06
9.84563e-07
9.85525e-07
2.01259e-06
6.45409e-07
4.61571e-07
1.10293e-06
1.40451e-06
3.77223e-07
1.40372e-06
3.76566e-07
4.62676e-07
4.62787e-07
3.76645e-07
1.10362e-06
1.40384e-06
3.77262e-07
1.40442e-06
4.61602e-07
6.45526e-07
9.85841e-07
2.01241e-06
2.72815e-06
2.0115e-06
6.46749e-07
9.8473e-07
4.61648e-07
1.10305e-06
3.77292e-07
1.40452e-06
3.76635e-07
1.40373e-06
4.62746e-07
6.46728e-07
2.0116e-06
2.72894e-06
9.8481e-07
2.01232e-06
6.45491e-07
9.85761e-07
1.66604e-06
3.5156e-07
7.4672e-07
7.47013e-07
7.47658e-07
7.47958e-07
1.66534e-06
1.03445e-07
1.03439e-07
1.21136e-07
1.03444e-07
1.03439e-07
9.57829e-08
9.57833e-08
1.03445e-07
1.03448e-07
1.21152e-07
1.03445e-07
1.03447e-07
9.57859e-08
9.57865e-08
1.03445e-07
1.03442e-07
1.21141e-07
1.03445e-07
1.03442e-07
9.57843e-08
9.57846e-08
4.62726e-07
1.10346e-06
1.4044e-06
3.76609e-07
1.40443e-06
3.77201e-07
4.61528e-07
6.45446e-07
9.85597e-07
2.0127e-06
2.72788e-06
6.46692e-07
9.84486e-07
2.01175e-06
4.61576e-07
1.10294e-06
1.40452e-06
3.77224e-07
4.62684e-07
1.40374e-06
3.7657e-07
6.46673e-07
2.0123e-06
2.72867e-06
9.84562e-07
9.8552e-07
2.0126e-06
6.45437e-07
4.62771e-07
1.10361e-06
3.7664e-07
1.4038e-06
3.77257e-07
1.40439e-06
4.61581e-07
6.45498e-07
9.8582e-07
2.01241e-06
2.72813e-06
6.46742e-07
9.84706e-07
2.01149e-06
4.61628e-07
1.10304e-06
3.77285e-07
1.4045e-06
4.62729e-07
3.76629e-07
1.40371e-06
6.46717e-07
2.01158e-06
2.72889e-06
9.84788e-07
9.85743e-07
2.01231e-06
6.45458e-07
1.66605e-06
3.51559e-07
7.46714e-07
7.47001e-07
7.47661e-07
7.47951e-07
1.66594e-06
4.62656e-07
3.7654e-07
1.10333e-06
1.40371e-06
1.40427e-06
3.77159e-07
4.61475e-07
6.45437e-07
9.85884e-07
2.01249e-06
2.72816e-06
2.0116e-06
6.46652e-07
9.84859e-07
4.61507e-07
1.10275e-06
1.40435e-06
3.77177e-07
1.40359e-06
3.76524e-07
4.62596e-07
6.46677e-07
2.01175e-06
2.72909e-06
9.85151e-07
2.01246e-06
6.4547e-07
9.86038e-07
4.62796e-07
1.40403e-06
3.76601e-07
1.10349e-06
1.40461e-06
3.77226e-07
4.61606e-07
6.4569e-07
9.8622e-07
2.72847e-06
2.01314e-06
2.0122e-06
9.85107e-07
6.46922e-07
6.46898e-07
2.0123e-06
2.72922e-06
9.8518e-07
2.01304e-06
6.45653e-07
9.86139e-07
4.6165e-07
1.10292e-06
1.40472e-06
3.77245e-07
1.40393e-06
3.76591e-07
4.62751e-07
4.61504e-07
3.77148e-07
1.10277e-06
1.40423e-06
4.62611e-07
1.4036e-06
3.76511e-07
6.46754e-07
9.84975e-07
2.01166e-06
2.72892e-06
2.01242e-06
6.45469e-07
9.85852e-07
4.6256e-07
1.10332e-06
1.40367e-06
3.76531e-07
1.40426e-06
3.77153e-07
4.61456e-07
6.45498e-07
2.01243e-06
9.85992e-07
2.72817e-06
6.46747e-07
2.0116e-06
9.84852e-07
4.61652e-07
1.40455e-06
3.77214e-07
1.10293e-06
4.62752e-07
1.40393e-06
3.7658e-07
6.46967e-07
9.85175e-07
2.72922e-06
2.01229e-06
2.01303e-06
9.86132e-07
6.4569e-07
6.45696e-07
2.01296e-06
9.86058e-07
2.72847e-06
6.46915e-07
2.01219e-06
9.85101e-07
4.62713e-07
1.10349e-06
1.40402e-06
3.76599e-07
1.40461e-06
3.77223e-07
4.61607e-07
1.66598e-06
3.5147e-07
7.46997e-07
7.46677e-07
7.47627e-07
7.47943e-07
1.66527e-06
1.66537e-06
3.50351e-07
7.47872e-07
7.47552e-07
7.46927e-07
1.66608e-06
7.46604e-07
4.62732e-07
3.76588e-07
1.40385e-06
1.10351e-06
3.77206e-07
1.40443e-06
4.61543e-07
6.45478e-07
9.85776e-07
2.72809e-06
2.01252e-06
9.84663e-07
2.01157e-06
6.46715e-07
6.46686e-07
2.01166e-06
2.72886e-06
9.84745e-07
9.85702e-07
2.01241e-06
6.45443e-07
4.61593e-07
1.10295e-06
3.77229e-07
1.40455e-06
3.76576e-07
1.40376e-06
4.62692e-07
4.61572e-07
1.40436e-06
3.77186e-07
1.10294e-06
4.62677e-07
1.40374e-06
3.76556e-07
6.46722e-07
9.84559e-07
2.72867e-06
2.01185e-06
6.45427e-07