/*--------------------------------*- C++ -*----------------------------------*\
| =========                 |                                                 |
| \\      /  F ield         | OpenFOAM: The Open Source CFD Toolbox           |
|  \\    /   O peration     | Version:  v1912                                 |
|   \\  /    A nd           | Website:  www.openfoam.com                      |
|    \\/     M anipulation  |                                                 |
\*---------------------------------------------------------------------------*/
FoamFile
{
    version     2.0;
    format      ascii;
    class       volScalarField;
    location    "100";
    object      k;
}
// * * * * * * * * * * * * * * * * * * * * * * * * * * * * * * * * * * * * * //

dimensions      [0 2 -2 0 0 0 0];


internalField   nonuniform List<scalar> 
57566
(
6.94944e-05
2.86792e-05
1.5757e-05
1.42406e-05
4.46241e-05
1.79693e-05
5.82883e-05
5.82986e-05
6.94877e-05
6.9492e-05
1.79898e-05
5.82857e-05
5.8299e-05
5.16894e-05
6.96215e-05
5.16924e-05
6.96285e-05
2.86792e-05
1.57566e-05
4.46227e-05
1.42397e-05
2.86832e-05
1.57574e-05
4.46298e-05
1.42401e-05
6.94919e-05
1.7989e-05
5.82974e-05
5.8284e-05
6.94875e-05
5.16931e-05
6.96232e-05
2.86745e-05
1.57564e-05
1.42396e-05
4.46216e-05
5.16963e-05
6.96292e-05
2.86846e-05
1.57571e-05
4.46299e-05
1.42403e-05
5.16892e-05
6.96219e-05
2.86798e-05
1.5757e-05
1.42402e-05
4.46239e-05
2.86732e-05
1.5757e-05
1.42401e-05
4.46214e-05
5.16921e-05
6.96236e-05
2.86828e-05
1.57563e-05
4.46215e-05
1.42405e-05
5.16936e-05
6.96258e-05
2.86785e-05
1.57575e-05
1.42407e-05
4.46233e-05
5.16883e-05
6.96223e-05
1.7969e-05
5.82925e-05
5.82877e-05
6.94948e-05
6.94884e-05
1.7986e-05
5.82903e-05
5.82851e-05
6.94891e-05
2.86776e-05
1.57575e-05
1.42408e-05
4.46247e-05
5.16951e-05
6.96242e-05
5.16951e-05
6.9629e-05
2.86842e-05
1.57575e-05
1.42411e-05
4.46259e-05
2.8683e-05
1.57581e-05
1.42414e-05
4.46264e-05
5.16912e-05
6.96229e-05
5.16912e-05
6.96277e-05
6.94938e-05
6.94957e-05
1.79862e-05
5.82855e-05
5.82958e-05
6.94881e-05
6.94901e-05
6.94892e-05
8.64575e-05
7.24113e-05
7.24058e-05
7.24055e-05
7.24e-05
8.64607e-05
5.58078e-05
6.84508e-05
5.82873e-05
3.8437e-05
3.84394e-05
6.84496e-05
5.58081e-05
5.58779e-05
6.84639e-05
5.82974e-05
3.84569e-05
3.84595e-05
6.84628e-05
5.5878e-05
6.94928e-05
6.94969e-05
8.64579e-05
7.24056e-05
7.23996e-05
8.64548e-05
7.24114e-05
7.24058e-05
5.58142e-05
6.84507e-05
3.84427e-05
5.82858e-05
5.58133e-05
6.84518e-05
3.84406e-05
5.5878e-05
6.84641e-05
3.84616e-05
5.83002e-05
5.58772e-05
6.84652e-05
3.84602e-05
6.97014e-05
6.91515e-05
5.78124e-05
5.16902e-05
6.96993e-05
6.91528e-05
5.78157e-05
7.078e-05
7.29255e-05
6.96222e-05
7.07721e-05
7.29314e-05
6.97059e-05
6.91539e-05
5.78181e-05
5.16936e-05
6.97039e-05
6.91552e-05
5.78217e-05
7.07838e-05
7.29472e-05
6.96293e-05
7.07763e-05
7.29535e-05
6.94966e-05
8.64589e-05
7.24005e-05
7.24052e-05
8.64558e-05
7.24062e-05
7.24109e-05
5.58744e-05
6.84631e-05
3.84607e-05
5.82985e-05
3.84587e-05
5.58735e-05
6.84642e-05
5.58101e-05
6.84505e-05
3.84411e-05
5.82849e-05
5.58093e-05
6.84516e-05
3.84388e-05
6.94927e-05
6.97013e-05
5.16911e-05
6.91562e-05
5.7815e-05
6.91551e-05
5.78117e-05
6.97033e-05
7.07721e-05
7.29292e-05
6.96224e-05
7.29237e-05
7.07802e-05
6.97049e-05
5.78196e-05
6.9155e-05
5.16982e-05
6.97029e-05
5.78231e-05
6.91562e-05
7.07832e-05
7.29469e-05
6.963e-05
7.07757e-05
7.29531e-05
6.97028e-05
6.91545e-05
5.78106e-05
5.16907e-05
6.97007e-05
6.91557e-05
5.78138e-05
7.07792e-05
7.29223e-05
6.96226e-05
7.0771e-05
7.2928e-05
6.97019e-05
5.16905e-05
6.91554e-05
5.78145e-05
6.91542e-05
5.7811e-05
6.97038e-05
7.07726e-05
7.29279e-05
6.96228e-05
7.29218e-05
7.07801e-05
6.9705e-05
5.78158e-05
6.91547e-05
5.16944e-05
6.9703e-05
5.78192e-05
6.9156e-05
7.07821e-05
7.29415e-05
6.96266e-05
7.07745e-05
7.29479e-05
6.97031e-05
6.91536e-05
5.78098e-05
5.1689e-05
6.97012e-05
6.91549e-05
5.78133e-05
7.07791e-05
7.29204e-05
6.96231e-05
7.07714e-05
7.29267e-05
8.64601e-05
7.24059e-05
7.24117e-05
7.24001e-05
7.24059e-05
8.64633e-05
5.58776e-05
6.84622e-05
5.82917e-05
3.84564e-05
6.8461e-05
3.84594e-05
5.58777e-05
5.58136e-05
6.8452e-05
5.82865e-05
3.84425e-05
3.8445e-05
6.84509e-05
5.58138e-05
6.949e-05
6.94935e-05
8.64623e-05
7.2399e-05
7.24048e-05
8.64588e-05
7.24049e-05
7.24107e-05
5.58786e-05
6.84604e-05
3.84585e-05
5.82911e-05
3.84562e-05
5.58779e-05
6.84615e-05
5.5815e-05
6.84502e-05
3.84446e-05
5.82862e-05
5.58143e-05
6.84514e-05
3.84427e-05
6.9494e-05
6.97024e-05
5.1693e-05
5.78143e-05
6.91577e-05
5.78108e-05
6.91566e-05
6.97043e-05
7.0773e-05
7.29274e-05
6.96234e-05
7.29212e-05
7.07805e-05
6.9704e-05
5.16931e-05
5.78194e-05
6.91581e-05
5.78158e-05
6.91569e-05
6.97058e-05
7.07752e-05
7.29484e-05
6.96282e-05
7.29421e-05
7.07827e-05
6.97037e-05
5.78094e-05
6.9156e-05
5.1693e-05
6.97017e-05
5.78129e-05
6.91572e-05
7.07795e-05
7.29198e-05
6.96237e-05
7.07718e-05
7.29261e-05
6.97052e-05
5.78145e-05
6.91563e-05
5.16929e-05
6.97033e-05
5.78182e-05
6.91575e-05
7.07817e-05
7.29407e-05
6.96284e-05
7.07741e-05
7.29472e-05
6.9489e-05
6.9491e-05
8.64598e-05
7.24044e-05
7.23989e-05
8.64563e-05
7.24102e-05
7.24048e-05
5.58112e-05
6.8449e-05
3.84393e-05
5.82865e-05
5.58095e-05
3.84376e-05
6.84502e-05
5.58796e-05
6.84621e-05
3.84592e-05
5.8297e-05
5.58787e-05
3.84573e-05
6.84632e-05
6.9493e-05
6.94949e-05
1.40089e-05
1.39342e-05
1.39346e-05
1.41479e-05
1.40092e-05
1.39343e-05
1.39346e-05
1.41478e-05
1.40092e-05
1.39347e-05
1.39349e-05
1.41482e-05
1.40092e-05
1.39346e-05
1.3935e-05
1.41482e-05
1.40092e-05
1.39344e-05
1.39349e-05
1.4148e-05
1.40096e-05
1.39346e-05
1.39348e-05
1.41478e-05
1.94339e-05
2.8691e-05
1.78351e-05
3.26341e-05
1.78495e-05
3.26469e-05
1.94112e-05
2.23929e-05
3.89395e-05
4.46279e-05
2.75877e-05
2.76051e-05
3.89513e-05
2.23702e-05
3.70384e-05
1.79889e-05
2.47067e-05
2.47121e-05
2.47283e-05
2.47339e-05
3.70271e-05
3.70277e-05
1.79704e-05
2.47303e-05
2.47361e-05
3.70408e-05
2.47091e-05
2.4714e-05
1.94065e-05
3.26388e-05
1.78457e-05
2.86694e-05
1.94293e-05
3.26277e-05
1.78312e-05
2.23634e-05
3.89492e-05
2.76072e-05
4.46198e-05
2.75892e-05
2.23873e-05
3.89358e-05
1.94108e-05
3.26469e-05
1.78475e-05
2.86735e-05
1.94335e-05
3.26361e-05
1.78331e-05
2.23696e-05
3.89609e-05
2.76127e-05
4.46265e-05
2.23934e-05
3.89475e-05
2.75958e-05
3.70257e-05
1.79695e-05
2.47344e-05
2.47296e-05
2.47127e-05
3.7039e-05
2.47078e-05
1.94329e-05
2.86858e-05
1.7833e-05
3.26577e-05
1.78475e-05
3.26713e-05
1.94108e-05
2.23919e-05
3.89386e-05
4.46258e-05
2.75892e-05
3.895e-05
2.23691e-05
2.7606e-05
1.94098e-05
3.26456e-05
1.78477e-05
2.86743e-05
1.94327e-05
3.26338e-05
1.78332e-05
2.23648e-05
3.8935e-05
2.76132e-05
4.46259e-05
2.75945e-05
2.23903e-05
3.89202e-05
1.94136e-05
1.78433e-05
3.26637e-05
2.86742e-05
1.94312e-05
1.78336e-05
3.26564e-05
2.23712e-05
3.89466e-05
2.76024e-05
4.46218e-05
2.23888e-05
3.89391e-05
2.75899e-05
1.94334e-05
2.86842e-05
1.78326e-05
3.26581e-05
1.78471e-05
3.26719e-05
1.94114e-05
2.23921e-05
3.89404e-05
4.46255e-05
2.75863e-05
2.76037e-05
3.89518e-05
2.23694e-05
1.94092e-05
3.2643e-05
1.78474e-05
2.86727e-05
1.94322e-05
3.26318e-05
1.7833e-05
2.23657e-05
3.8956e-05
2.76033e-05
4.46188e-05
2.23897e-05
2.75866e-05
3.89424e-05
1.94141e-05
1.78429e-05
3.26643e-05
2.86729e-05
1.94317e-05
1.78332e-05
3.26567e-05
2.23714e-05
3.89485e-05
2.75989e-05
4.46212e-05
2.2389e-05
3.89408e-05
2.75866e-05
3.70398e-05
1.79885e-05
2.47109e-05
2.47088e-05
2.47304e-05
2.47328e-05
3.70285e-05
3.70294e-05
1.79676e-05
2.47262e-05
2.47239e-05
2.47118e-05
3.7036e-05
2.47097e-05
1.94363e-05
2.8689e-05
1.78355e-05
3.26628e-05
1.785e-05
3.26767e-05
1.94141e-05
2.23958e-05
3.89466e-05
4.46295e-05
2.75913e-05
2.76092e-05
3.8958e-05
2.2373e-05
1.94131e-05
1.78454e-05
3.26407e-05
2.86781e-05
1.94312e-05
1.78356e-05
3.26337e-05
2.23721e-05
3.89473e-05
2.76004e-05
4.46241e-05
2.23898e-05
2.75881e-05
3.89395e-05
1.94168e-05
1.78457e-05
3.26691e-05
2.86772e-05
1.94345e-05
1.78359e-05
3.26613e-05
2.23749e-05
3.89544e-05
2.76039e-05
4.46241e-05
2.23927e-05
3.8947e-05
2.75915e-05
3.70282e-05
1.79678e-05
2.47218e-05
2.47273e-05
3.70347e-05
2.47076e-05
2.4713e-05
6.94893e-05
6.94907e-05
1.79961e-05
5.83032e-05
5.83126e-05
5.17196e-05
6.96248e-05
5.17206e-05
2.87071e-05
1.57646e-05
4.46479e-05
1.42437e-05
2.87105e-05
1.42442e-05
5.17247e-05
6.963e-05
2.87127e-05
1.57653e-05
4.46508e-05
1.42442e-05
5.17229e-05
6.96244e-05
2.87128e-05
1.57645e-05
1.42442e-05
4.46475e-05
6.94884e-05
1.79958e-05
5.83083e-05
5.83017e-05
6.94891e-05
2.87118e-05
1.57647e-05
1.42442e-05
4.46475e-05
2.8713e-05
1.42443e-05
5.17221e-05
6.96253e-05
5.17238e-05
6.94947e-05
6.94961e-05
8.64573e-05
7.24018e-05
7.23977e-05
8.64529e-05
7.24083e-05
7.2404e-05
5.58449e-05
6.8457e-05
3.847e-05
5.83032e-05
5.58465e-05
6.8458e-05
3.84667e-05
5.58975e-05
6.84655e-05
3.84915e-05
5.83127e-05
5.58976e-05
6.84667e-05
3.84879e-05
6.97022e-05
6.9152e-05
5.78352e-05
5.17187e-05
6.96998e-05
6.91535e-05
5.78352e-05
7.07802e-05
7.29372e-05
6.96256e-05
7.07716e-05
7.29415e-05
6.97063e-05
6.91543e-05
5.78402e-05
5.17201e-05
6.9704e-05
6.91558e-05
5.78404e-05
6.97055e-05
5.78414e-05
6.91552e-05
5.17247e-05
6.97032e-05
5.78418e-05
6.91567e-05
7.07825e-05
7.29557e-05
6.9631e-05
7.07743e-05
7.29612e-05
6.97043e-05
6.91555e-05
5.78358e-05
5.17226e-05
6.97019e-05
6.9157e-05
5.7836e-05
7.07802e-05
7.29348e-05
6.96252e-05
7.07714e-05
7.29395e-05
6.94943e-05
8.6473e-05
7.23991e-05
7.24048e-05
8.64691e-05
7.24056e-05
7.24114e-05
5.59001e-05
6.84649e-05
3.84879e-05
5.83083e-05
3.84841e-05
5.58995e-05
6.8466e-05
5.58363e-05
6.84547e-05
3.84737e-05
5.83018e-05
5.58358e-05
6.84557e-05
3.84702e-05
6.94945e-05
6.97041e-05
5.78338e-05
6.91549e-05
5.17204e-05
6.97018e-05
5.7834e-05
6.91564e-05
7.07806e-05
7.29333e-05
6.96262e-05
7.07725e-05
7.29386e-05
6.97048e-05
5.78395e-05
6.91559e-05
5.17235e-05
6.97023e-05
5.78396e-05
6.91574e-05
1.40102e-05
1.39332e-05
1.39334e-05
1.41432e-05
1.39337e-05
1.41436e-05
1.40108e-05
1.39337e-05
1.39339e-05
1.41434e-05
1.3934e-05
1.41435e-05
3.70585e-05
1.79791e-05
2.47472e-05
2.47555e-05
3.70641e-05
2.47288e-05
2.47369e-05
1.94239e-05
3.26659e-05
1.78572e-05
2.87004e-05
1.94427e-05
3.26579e-05
1.78452e-05
2.2383e-05
3.8948e-05
2.76211e-05
4.46449e-05
2.76089e-05
2.23999e-05
3.89498e-05
1.94269e-05
3.2673e-05
1.78589e-05
2.87039e-05
1.94461e-05
3.26647e-05
1.78469e-05
1.94273e-05
3.26725e-05
1.78599e-05
2.87059e-05
1.94461e-05
3.26641e-05
1.7848e-05
2.23867e-05
3.89564e-05
2.76267e-05
4.46478e-05
2.76139e-05
2.24037e-05
3.89563e-05
1.94265e-05
1.786e-05
3.26697e-05
2.87063e-05
1.94452e-05
1.78482e-05
3.26616e-05
2.23842e-05
3.89486e-05
2.76245e-05
4.46443e-05
2.24012e-05
3.89486e-05
2.76102e-05
3.7058e-05
1.79783e-05
2.47522e-05
2.47494e-05
2.47337e-05
3.70634e-05
2.47311e-05
1.94268e-05
1.78597e-05
3.26681e-05
2.87051e-05
1.94453e-05
1.78477e-05
3.26727e-05
2.23844e-05
3.89477e-05
2.76213e-05
4.46446e-05
2.24014e-05
2.76072e-05
3.89515e-05
1.94258e-05
1.78595e-05
3.26715e-05
2.87065e-05
1.94449e-05
1.78477e-05
3.26631e-05
1.40101e-05
1.57638e-05
1.5765e-05
1.79986e-05
1.40101e-05
1.57638e-05
1.57648e-05
1.79982e-05
1.57649e-05
1.57654e-05
1.57654e-05
1.57653e-05
1.79966e-05
1.79779e-05
1.57652e-05
1.57638e-05
1.57651e-05
1.57653e-05
1.57649e-05
1.57653e-05
1.7977e-05
1.79978e-05
1.57647e-05
1.57652e-05
1.79959e-05
1.57652e-05
1.57644e-05
1.57649e-05
1.79969e-05
1.57651e-05
5.17197e-05
6.96248e-05
5.17178e-05
6.9626e-05
6.94906e-05
6.9496e-05
1.40104e-05
1.40105e-05
1.40106e-05
1.40101e-05
1.40104e-05
1.40105e-05
1.40106e-05
2.87031e-05
4.4644e-05
1.42436e-05
1.57637e-05
4.46402e-05
1.42437e-05
2.87106e-05
2.87045e-05
1.42441e-05
4.46484e-05
1.57651e-05
1.42442e-05
2.87123e-05
4.46445e-05
5.83027e-05
5.83133e-05
1.79791e-05
5.83034e-05
5.8314e-05
5.17196e-05
6.96248e-05
5.17182e-05
6.96257e-05
6.94907e-05
6.94961e-05
5.1725e-05
6.96298e-05
6.96309e-05
5.17237e-05
1.40106e-05
1.40108e-05
1.40109e-05
2.87034e-05
4.46441e-05
1.42437e-05
1.57638e-05
2.87109e-05
4.46401e-05
1.42438e-05
6.94883e-05
6.9494e-05
2.87043e-05
1.4244e-05
4.46479e-05
1.57647e-05
2.87122e-05
1.42442e-05
4.46442e-05
5.83025e-05
5.83132e-05
1.79794e-05
5.83027e-05
5.83136e-05
5.17221e-05
6.96297e-05
6.96306e-05
5.17199e-05
2.86999e-05
4.46482e-05
1.42435e-05
1.57657e-05
1.42437e-05
2.87073e-05
4.46464e-05
2.87031e-05
4.46522e-05
1.4244e-05
1.57653e-05
4.46484e-05
1.42441e-05
2.87106e-05
5.17156e-05
6.96257e-05
5.17185e-05
6.96249e-05
5.17182e-05
6.96307e-05
6.96295e-05
5.17213e-05
2.87043e-05
1.57652e-05
4.46452e-05
1.42436e-05
1.42436e-05
2.86996e-05
4.46478e-05
2.87075e-05
1.57653e-05
4.46487e-05
1.4244e-05
4.46495e-05
1.42441e-05
2.87032e-05
5.8311e-05
5.82981e-05
1.79775e-05
5.83119e-05
5.82995e-05
6.94864e-05
6.94922e-05
6.9496e-05
6.94907e-05
1.7995e-05
5.83123e-05
5.82995e-05
5.83096e-05
5.82975e-05
6.94922e-05
6.94867e-05
5.17221e-05
6.96274e-05
6.96283e-05
5.17202e-05
2.87034e-05
1.42439e-05
4.46478e-05
1.5765e-05
1.4244e-05
4.46439e-05
2.87111e-05
5.17208e-05
6.96247e-05
6.96256e-05
5.17187e-05
2.87074e-05
1.57637e-05
4.46405e-05
1.42436e-05
4.46416e-05
1.42437e-05
2.87034e-05
5.17184e-05
6.96284e-05
6.96272e-05
5.17227e-05
2.87078e-05
1.5765e-05
1.4244e-05
4.46441e-05
1.4244e-05
4.46452e-05
2.87036e-05
5.17173e-05
6.96256e-05
6.96245e-05
5.17217e-05
2.87054e-05
1.42441e-05
4.46516e-05
1.57653e-05
1.42442e-05
4.46478e-05
2.87132e-05
5.17214e-05
6.96255e-05
5.17195e-05
6.96262e-05
5.17231e-05
6.96289e-05
6.96299e-05
5.17217e-05
2.87089e-05
1.57653e-05
1.42441e-05
4.46446e-05
1.42441e-05
2.87046e-05
4.46459e-05
2.87096e-05
1.57653e-05
1.42441e-05
4.4648e-05
1.42441e-05
4.46489e-05
2.87055e-05
5.17178e-05
6.96262e-05
5.17233e-05
6.96252e-05
5.17194e-05
6.96299e-05
6.96288e-05
5.17241e-05
6.94881e-05
6.94935e-05
6.94899e-05
6.94952e-05
1.79939e-05
5.83032e-05
5.83139e-05
5.83011e-05
5.83116e-05
6.94934e-05
6.94883e-05
6.94952e-05
6.949e-05
6.94892e-05
6.94945e-05
6.94905e-05
6.9496e-05
5.83031e-05
5.83116e-05
1.7978e-05
5.83038e-05
5.83134e-05
5.17206e-05
6.96296e-05
5.17174e-05
6.96307e-05
2.86996e-05
4.46463e-05
1.42437e-05
1.57646e-05
2.87038e-05
4.46445e-05
1.42436e-05
2.87031e-05
4.46498e-05
1.42442e-05
1.57652e-05
2.87073e-05
4.46485e-05
1.42441e-05
5.83101e-05
5.82975e-05
1.79779e-05
5.83123e-05
5.82985e-05
6.94867e-05
6.94921e-05
2.87051e-05
4.46508e-05
1.42441e-05
1.57653e-05
4.46474e-05
1.42441e-05
2.87128e-05
5.17234e-05
6.96243e-05
6.96253e-05
5.17222e-05
2.87054e-05
1.4244e-05
4.46475e-05
1.57645e-05
1.42441e-05
4.46437e-05
2.87132e-05
5.1724e-05
6.96273e-05
5.17198e-05
6.96283e-05
2.8704e-05
1.42441e-05
4.46453e-05
1.5765e-05
2.8708e-05
1.42441e-05
4.46442e-05
5.17231e-05
6.96245e-05
5.17189e-05
6.96256e-05
5.83069e-05
5.83015e-05
1.79778e-05
5.83085e-05
5.83023e-05
6.94891e-05
6.94944e-05
2.87056e-05
1.42442e-05
4.46492e-05
1.57652e-05
2.87098e-05
1.42442e-05
4.46479e-05
5.17224e-05
6.96252e-05
5.17209e-05
6.96262e-05
5.17241e-05
6.96288e-05
5.17208e-05
6.96299e-05
6.94882e-05
6.94934e-05
6.949e-05
6.94953e-05
6.96999e-05
6.91535e-05
5.17181e-05
5.78372e-05
6.9152e-05
5.78339e-05
6.97022e-05
7.078e-05
7.29364e-05
6.96258e-05
7.29415e-05
7.07716e-05
6.97022e-05
5.17178e-05
6.91519e-05
5.7835e-05
6.91535e-05
5.78357e-05
6.96998e-05
7.07716e-05
7.2942e-05
6.96249e-05
7.29359e-05
7.07801e-05
6.9496e-05
6.94906e-05
8.64684e-05
7.2411e-05
7.24055e-05
7.24045e-05
7.23991e-05
8.64714e-05
5.58336e-05
3.84696e-05
5.83027e-05
6.84534e-05
3.84661e-05
6.84545e-05
5.58326e-05
5.58998e-05
3.8489e-05
5.83133e-05
6.84663e-05
3.84856e-05
6.84673e-05
5.5899e-05
5.58303e-05
6.84547e-05
5.8302e-05
3.84658e-05
3.84685e-05
6.84533e-05
5.58304e-05
5.58964e-05
6.84675e-05
5.83124e-05
3.8485e-05
3.84878e-05
6.84661e-05
5.58966e-05
8.64719e-05
7.24045e-05
7.2399e-05
7.2411e-05
7.24055e-05
8.64679e-05
6.96998e-05
5.1718e-05
6.91535e-05
5.78368e-05
6.9152e-05
5.78336e-05
6.97022e-05
7.07802e-05
7.2937e-05
6.96256e-05
7.07715e-05
7.29418e-05
6.97022e-05
5.17181e-05
6.9152e-05
5.78349e-05
6.96998e-05
6.91536e-05
5.78353e-05
7.07716e-05
7.29424e-05
6.96247e-05
7.29365e-05
7.07803e-05
6.94962e-05
6.94908e-05
6.97033e-05
5.78435e-05
6.91567e-05
5.17231e-05
5.78399e-05
6.91552e-05
6.97055e-05
7.07824e-05
6.96307e-05
7.29555e-05
7.29612e-05
7.07743e-05
7.07744e-05
7.29618e-05
6.96298e-05
7.2955e-05
7.07825e-05
6.97055e-05
5.17236e-05
5.78411e-05
6.91552e-05
5.78422e-05
6.91567e-05
6.97032e-05
6.9494e-05
6.94883e-05
8.64689e-05
7.2411e-05
7.24055e-05
7.24045e-05
7.23991e-05
8.64715e-05
5.58335e-05
3.84695e-05
6.84534e-05
5.83025e-05
5.58324e-05
3.84659e-05
6.84545e-05
5.59005e-05
3.84884e-05
6.84662e-05
5.83132e-05
5.58992e-05
3.84852e-05
6.84674e-05
8.64723e-05
7.24045e-05
7.2399e-05
8.64682e-05
7.2411e-05
7.24055e-05
5.58303e-05
6.84546e-05
5.83018e-05
3.84655e-05
3.84683e-05
6.84532e-05
5.58304e-05
5.58976e-05
6.84675e-05
5.83124e-05
3.8485e-05
3.84876e-05
6.84662e-05
5.58979e-05
6.97038e-05
6.91558e-05
5.7842e-05
5.17202e-05
6.91542e-05
5.78382e-05
6.97061e-05
7.07827e-05
6.96306e-05
7.29551e-05
7.29607e-05
7.07745e-05
7.07746e-05
7.29614e-05
6.96296e-05
7.29545e-05
7.07827e-05
6.97061e-05
5.17202e-05
6.9154e-05
5.78393e-05
6.91556e-05
5.78403e-05
6.97037e-05
6.97023e-05
6.9152e-05
5.17162e-05
5.78326e-05
6.96999e-05
6.91536e-05
5.78355e-05
7.07714e-05
7.29422e-05
6.96247e-05
7.07802e-05
7.29363e-05
6.96999e-05
5.17168e-05
6.91536e-05
5.78366e-05
6.97022e-05
6.91521e-05
5.78335e-05
7.07801e-05
7.29356e-05
6.96256e-05
7.07715e-05
7.29414e-05
6.97061e-05
6.91543e-05
5.78371e-05
5.17193e-05
6.97038e-05
6.91559e-05
5.78407e-05
7.07745e-05
6.96296e-05
7.29615e-05
7.29547e-05
7.07828e-05
7.07827e-05
7.29542e-05
6.96305e-05
7.07745e-05
7.29608e-05
6.97039e-05
5.17198e-05
6.91559e-05
5.78421e-05
6.91544e-05
5.78385e-05
6.97061e-05
8.64666e-05
7.24059e-05
7.24106e-05
7.23994e-05
7.24042e-05
8.64695e-05
5.59008e-05
3.84905e-05
5.8311e-05
6.84668e-05
6.84678e-05
3.84863e-05
5.59002e-05
5.58345e-05
3.84702e-05
5.82981e-05
6.84537e-05
3.84667e-05
6.84548e-05
5.58338e-05
5.58973e-05
6.84679e-05
5.83102e-05
3.84861e-05
6.84666e-05
3.84887e-05
5.58973e-05
5.58311e-05
6.84549e-05
5.82983e-05
3.84664e-05
3.84692e-05
6.84535e-05
5.58311e-05
8.64702e-05
7.23994e-05
7.24041e-05
7.24059e-05
7.24107e-05
8.64662e-05
6.94922e-05
6.94866e-05
6.94907e-05
6.9496e-05
8.647e-05
7.23995e-05
7.24043e-05
8.64658e-05
7.24059e-05
7.24107e-05
5.58998e-05
3.84869e-05
5.83106e-05
6.84679e-05
3.84896e-05
6.84665e-05
5.58999e-05
5.58338e-05
3.84654e-05
5.82984e-05
6.8455e-05
6.84536e-05
3.84681e-05
5.58338e-05
5.58998e-05
6.84664e-05
3.84882e-05
5.83112e-05
3.84866e-05
5.58984e-05
6.84678e-05
5.58339e-05
6.84534e-05
3.84678e-05
5.82986e-05
5.58323e-05
6.84548e-05
3.84654e-05
8.64653e-05
7.24058e-05
7.24106e-05
7.23994e-05
7.24041e-05
8.64695e-05
6.94866e-05
6.94923e-05
6.97034e-05
5.784e-05
6.91565e-05
5.17203e-05
5.78362e-05
6.9155e-05
6.97057e-05
7.07817e-05
6.96282e-05
7.29513e-05
7.29571e-05
7.07736e-05
7.07737e-05
7.29576e-05
6.96273e-05
7.29507e-05
7.07818e-05
6.97056e-05
5.17201e-05
5.78373e-05
6.91549e-05
5.78383e-05
6.91565e-05
6.97033e-05
6.97024e-05
6.9156e-05
5.78366e-05
5.1719e-05
6.91545e-05
5.7833e-05
6.97046e-05
7.078e-05
6.96256e-05
7.29325e-05
7.29381e-05
7.07718e-05
7.07719e-05
7.29385e-05
6.96246e-05
7.29318e-05
7.078e-05
6.97047e-05
5.17189e-05
6.91544e-05
5.78343e-05
6.9156e-05
5.78351e-05
6.97025e-05
6.97058e-05
5.78352e-05
6.9155e-05
5.17192e-05
6.97035e-05
5.78388e-05
6.91566e-05
7.07736e-05
6.96273e-05
7.29577e-05
7.29508e-05
7.07819e-05
7.07818e-05
7.29503e-05
6.96282e-05
7.07736e-05
7.2957e-05
6.97036e-05
5.17206e-05
5.78404e-05
6.91566e-05
5.78366e-05
6.91551e-05
6.97058e-05
6.97046e-05
6.91545e-05
5.78318e-05
5.17181e-05
6.97023e-05
6.91561e-05
5.78353e-05
7.07717e-05
6.96246e-05
7.29386e-05
7.29318e-05
7.078e-05
7.07799e-05
7.29313e-05
6.96255e-05
7.07718e-05
7.29379e-05
6.97023e-05
5.17197e-05
6.91561e-05
5.78368e-05
6.91546e-05
5.78331e-05
6.97045e-05
6.97021e-05
6.91566e-05
5.17195e-05
5.78352e-05
5.78317e-05
6.91551e-05
6.97044e-05
7.07808e-05
7.29333e-05
6.96263e-05
7.29389e-05
7.07726e-05
6.97045e-05
5.17193e-05
5.7833e-05
6.91552e-05
5.78336e-05
6.91567e-05
6.97021e-05
7.07727e-05
7.29394e-05
6.96254e-05
7.29327e-05
7.07808e-05
6.97021e-05
5.78402e-05
6.91573e-05
5.17212e-05
5.78369e-05
6.91558e-05
6.97044e-05
7.07807e-05
6.96298e-05
7.2951e-05
7.2956e-05
7.07719e-05
7.0772e-05
7.29565e-05
6.96288e-05
7.29504e-05
7.07807e-05
6.97044e-05
5.17218e-05
5.78382e-05
6.91559e-05
5.78387e-05
6.91574e-05
6.9702e-05
6.97043e-05
6.91551e-05
5.17184e-05
5.78306e-05
6.9702e-05
5.78339e-05
6.91566e-05
7.07725e-05
7.29394e-05
6.96252e-05
7.29327e-05
7.07808e-05
6.97019e-05
5.17205e-05
5.78355e-05
6.91566e-05
5.7832e-05
6.91551e-05
6.97042e-05
7.07807e-05
7.29322e-05
6.96261e-05
7.07726e-05
7.29388e-05
6.97045e-05
5.78359e-05
6.91558e-05
5.17207e-05
6.97021e-05
5.78392e-05
6.91574e-05
7.07719e-05
6.96289e-05
7.29567e-05
7.29505e-05
7.07808e-05
7.07807e-05
7.29499e-05
6.96298e-05
7.07719e-05
7.29559e-05
6.97021e-05
5.1722e-05
5.78409e-05
6.91574e-05
5.78375e-05
6.91559e-05
6.97045e-05
6.94936e-05
6.94882e-05
6.94953e-05
6.949e-05
8.6472e-05
7.24046e-05
7.23991e-05
8.64678e-05
7.2411e-05
7.24055e-05
5.58326e-05
3.84667e-05
5.83018e-05
6.84547e-05
5.58324e-05
3.84686e-05
6.84532e-05
5.5899e-05
3.84856e-05
5.83124e-05
6.84675e-05
5.5899e-05
3.84874e-05
6.8466e-05
5.58326e-05
6.84531e-05
3.84673e-05
5.83025e-05
5.58313e-05
3.84656e-05
6.84545e-05
5.58991e-05
6.84659e-05
3.84861e-05
5.83131e-05
5.58975e-05
3.84844e-05
6.84673e-05
8.64674e-05
7.24109e-05
7.24054e-05
8.64716e-05
7.24045e-05
7.2399e-05
6.94882e-05
6.94936e-05
6.94899e-05
6.94953e-05
6.94945e-05
6.94892e-05
6.9496e-05
6.94906e-05
8.64526e-05
7.24084e-05
7.24043e-05
7.24022e-05
7.23981e-05
8.6456e-05
5.58505e-05
3.8473e-05
5.83031e-05
6.84575e-05
6.84582e-05
3.8467e-05
5.58535e-05
5.58971e-05
3.84906e-05
5.83126e-05
6.84647e-05
6.84661e-05
3.84881e-05
5.58937e-05
5.58464e-05
6.84583e-05
5.83022e-05
3.84673e-05
6.8457e-05
5.58464e-05
3.84691e-05
5.58956e-05
6.84666e-05
5.83119e-05
3.84889e-05
6.84651e-05
5.58966e-05
3.84911e-05
8.6456e-05
7.24027e-05
7.23984e-05
7.24089e-05
7.2405e-05
8.64519e-05
6.9704e-05
5.17189e-05
6.91558e-05
5.78425e-05
6.91543e-05
5.78389e-05
6.97062e-05
7.07828e-05
7.29543e-05
6.96306e-05
7.07746e-05
7.29609e-05
6.97062e-05
5.17192e-05
6.91544e-05
5.78374e-05
6.91559e-05
6.97039e-05
5.78409e-05
7.07747e-05
7.29612e-05
6.96296e-05
7.29547e-05
7.07828e-05
8.64662e-05
7.24057e-05
7.24105e-05
7.23993e-05
7.24041e-05
8.64688e-05
5.58999e-05
3.84879e-05
6.84664e-05
5.83118e-05
6.84678e-05
5.58993e-05
3.84851e-05
5.58342e-05
3.84677e-05
6.84535e-05
5.82985e-05
3.84657e-05
5.58335e-05
6.84548e-05
8.64699e-05
7.23994e-05
7.24042e-05
7.24058e-05
8.64658e-05
7.24106e-05
5.58963e-05
6.84678e-05
5.83111e-05
3.8486e-05
6.84665e-05
3.84881e-05
5.58963e-05
5.58307e-05
6.84548e-05
5.82979e-05
3.84666e-05
3.8469e-05
6.84535e-05
5.58307e-05
6.94923e-05
6.94866e-05
6.97019e-05
6.91569e-05
5.78375e-05
5.17215e-05
6.91555e-05
5.78342e-05
6.97042e-05
7.07801e-05
6.96252e-05
7.29347e-05
7.29397e-05
7.07714e-05
7.07715e-05
7.29402e-05
6.96242e-05
7.29342e-05
7.07802e-05
6.97042e-05
5.17223e-05
6.91555e-05
5.78355e-05
6.9157e-05
5.78361e-05
6.97018e-05
6.97037e-05
5.17229e-05
5.78403e-05
6.91567e-05
5.78371e-05
6.91552e-05
6.9706e-05
7.07819e-05
7.29504e-05
6.96283e-05
7.29571e-05
7.07737e-05
6.97059e-05
5.17226e-05
5.78356e-05
6.91552e-05
5.78392e-05
6.97036e-05
6.91567e-05
7.07738e-05
7.29574e-05
6.96273e-05
7.29508e-05
7.07819e-05
6.97023e-05
5.17219e-05
6.91562e-05
5.78366e-05
6.91547e-05
5.78335e-05
6.97046e-05
7.07799e-05
7.29314e-05
6.96255e-05
7.07718e-05
7.2938e-05
6.97046e-05
5.17215e-05
6.91546e-05
5.78321e-05
6.97022e-05
6.91562e-05
5.78356e-05
7.07719e-05
7.29383e-05
6.96246e-05
7.29319e-05
7.078e-05
8.64696e-05
7.24056e-05
7.24113e-05
7.23992e-05
7.24049e-05
8.64726e-05
5.59018e-05
3.84889e-05
5.8307e-05
6.84648e-05
6.8466e-05
3.8485e-05
5.59012e-05
5.5837e-05
3.84736e-05
5.83016e-05
6.84546e-05
3.84705e-05
6.84556e-05
5.5836e-05
5.58982e-05
6.84662e-05
5.83071e-05
3.8485e-05
6.84647e-05
3.84873e-05
5.58993e-05
5.58342e-05
6.84558e-05
5.83009e-05
3.84711e-05
3.84732e-05
6.84545e-05
5.58353e-05
8.64732e-05
7.23992e-05
7.24049e-05
7.24057e-05
7.24114e-05
8.64691e-05
6.94945e-05
6.94892e-05
6.97019e-05
5.17217e-05
5.78358e-05
6.91565e-05
5.78324e-05
6.9155e-05
6.97042e-05
7.07807e-05
7.29322e-05
6.96262e-05
7.29388e-05
7.07726e-05
6.97042e-05
5.17223e-05
5.78311e-05
6.91551e-05
5.78344e-05
6.97018e-05
6.91567e-05
7.07726e-05
7.29393e-05
6.96252e-05
7.29326e-05
7.07807e-05
6.97023e-05
5.17223e-05
5.78414e-05
6.91574e-05
5.78382e-05
6.91559e-05
6.97047e-05
7.07808e-05
7.29501e-05
6.96299e-05
7.0772e-05
7.29561e-05
6.97046e-05
5.17227e-05
5.78367e-05
6.91559e-05
6.97022e-05
5.78399e-05
6.91574e-05
7.07721e-05
7.29564e-05
6.96289e-05
7.29506e-05
7.07808e-05
6.94935e-05
6.94881e-05
6.94953e-05
6.949e-05
1.39331e-05
1.39333e-05
1.40104e-05
1.39333e-05
1.39336e-05
1.41432e-05
1.41432e-05
3.70561e-05
2.47478e-05
2.4753e-05
1.79815e-05
2.47299e-05
2.4735e-05
3.70622e-05
1.3933e-05
1.39333e-05
1.40101e-05
1.39331e-05
1.39334e-05
1.41431e-05
1.41432e-05
3.7056e-05
2.47477e-05
2.47528e-05
1.79812e-05
3.70621e-05
2.47299e-05
2.47347e-05
3.70561e-05
2.47527e-05
2.47477e-05
1.79782e-05
2.47295e-05
2.47346e-05
3.70624e-05
3.7064e-05
1.79955e-05
2.4736e-05
2.47307e-05
2.47511e-05
2.47459e-05
3.7054e-05
3.70639e-05
1.79927e-05
2.47313e-05
2.47362e-05
3.7054e-05
2.47462e-05
2.47512e-05
3.70576e-05
2.47487e-05
2.47542e-05
1.7979e-05
2.47296e-05
2.47376e-05
3.70635e-05
3.70558e-05
2.47496e-05
2.47444e-05
1.79775e-05
2.47294e-05
3.7062e-05
2.47345e-05
3.70572e-05
2.47523e-05
2.47494e-05
1.79785e-05
2.47316e-05
2.47344e-05
3.70632e-05
1.39333e-05
1.39335e-05
1.40106e-05
1.39336e-05
1.39338e-05
1.41434e-05
1.41435e-05
1.39333e-05
1.39335e-05
1.40106e-05
1.39338e-05
1.39336e-05
1.41433e-05
1.41434e-05
1.39334e-05
1.39335e-05
1.40108e-05
1.39337e-05
1.39338e-05
1.41434e-05
1.41434e-05
1.40103e-05
1.3933e-05
1.39333e-05
1.39333e-05
1.39336e-05
1.41435e-05
1.41434e-05
1.40105e-05
1.39334e-05
1.39336e-05
1.39334e-05
1.39336e-05
1.41438e-05
1.41437e-05
1.40105e-05
1.39334e-05
1.39336e-05
1.39336e-05
1.39334e-05
1.41436e-05
1.41436e-05
1.40107e-05
1.39335e-05
1.39336e-05
1.39335e-05
1.39336e-05
1.41437e-05
1.41437e-05
1.94455e-05
3.26611e-05
1.78478e-05
2.87085e-05
3.2668e-05
1.78579e-05
1.94249e-05
2.23819e-05
2.76174e-05
4.46389e-05
3.8953e-05
2.76011e-05
3.89413e-05
2.24001e-05
2.23997e-05
3.8943e-05
4.46424e-05
2.76027e-05
2.76158e-05
3.89511e-05
2.23811e-05
1.94259e-05
2.8701e-05
3.26701e-05
1.78587e-05
3.26599e-05
1.7847e-05
1.94445e-05
1.94467e-05
1.7849e-05
2.87101e-05
3.26606e-05
1.78591e-05
3.26672e-05
1.94262e-05
2.23837e-05
2.76218e-05
3.89489e-05
4.46433e-05
3.89376e-05
2.24016e-05
2.76056e-05
1.94272e-05
2.87025e-05
1.786e-05
3.26694e-05
1.78483e-05
3.26591e-05
1.94458e-05
2.24011e-05
3.89394e-05
4.46467e-05
2.76071e-05
3.89471e-05
2.23829e-05
2.76201e-05
3.70604e-05
1.79992e-05
2.47312e-05
2.47362e-05
2.47463e-05
2.47514e-05
3.70542e-05
1.39336e-05
1.39338e-05
1.40106e-05
1.39336e-05
1.39339e-05
1.41435e-05
1.41435e-05
1.39336e-05
1.39339e-05
1.40107e-05
1.39336e-05
1.39338e-05
1.41433e-05
1.41433e-05
1.39337e-05
1.39339e-05
1.40109e-05
1.39337e-05
1.39339e-05
1.41434e-05
1.41434e-05
1.94456e-05
2.8709e-05
3.2661e-05
1.78476e-05
3.26684e-05
1.7858e-05
1.94247e-05
2.23819e-05
2.76172e-05
3.89531e-05
4.4639e-05
2.24001e-05
2.76011e-05
3.89414e-05
1.9426e-05
2.87014e-05
3.26704e-05
1.78588e-05
1.94447e-05
3.26603e-05
1.78471e-05
2.23997e-05
3.89555e-05
4.46425e-05
2.76061e-05
2.76157e-05
3.89508e-05
2.23813e-05
1.94463e-05
2.871e-05
1.78488e-05
3.26601e-05
1.78589e-05
3.26669e-05
1.94258e-05
2.23832e-05
2.76213e-05
3.89488e-05
4.46429e-05
2.24013e-05
2.76052e-05
3.89374e-05
1.94268e-05
2.87024e-05
1.78598e-05
3.2669e-05
1.94454e-05
1.78481e-05
3.26588e-05
2.24009e-05
3.8939e-05
4.46461e-05
2.76068e-05
2.76198e-05
3.89469e-05
2.23824e-05
3.70605e-05
1.79992e-05
2.47308e-05
2.47358e-05
2.47462e-05
2.47512e-05
3.7055e-05
1.94442e-05
1.78465e-05
2.87055e-05
3.26582e-05
3.26647e-05
1.78566e-05
1.94238e-05
2.23824e-05
2.76228e-05
3.89487e-05
4.46438e-05
3.89376e-05
2.24003e-05
2.7608e-05
1.94246e-05
2.86978e-05
3.26665e-05
1.78574e-05
3.26567e-05
1.78457e-05
1.9443e-05
2.24003e-05
3.89399e-05
4.46482e-05
2.76122e-05
3.89477e-05
2.23825e-05
2.76242e-05
1.94476e-05
3.26648e-05
1.78481e-05
2.87087e-05
3.26716e-05
1.78583e-05
1.94271e-05
2.23869e-05
2.76273e-05
4.46473e-05
3.89591e-05
3.89475e-05
2.76112e-05
2.24049e-05
2.24044e-05
3.89492e-05
4.46504e-05
2.76127e-05
3.89572e-05
2.2386e-05
2.76257e-05
1.94281e-05
2.87012e-05
3.26738e-05
1.78591e-05
3.26636e-05
1.78474e-05
1.94467e-05
1.94245e-05
1.78561e-05
2.8698e-05
3.26641e-05
1.94432e-05
3.26568e-05
1.78457e-05
2.2402e-05
2.76095e-05
3.8939e-05
4.46472e-05
3.89472e-05
2.23817e-05
2.76214e-05
1.94421e-05
2.87053e-05
3.26577e-05
1.78465e-05
3.26646e-05
1.78566e-05
1.94235e-05
2.2383e-05
3.89467e-05
2.76231e-05
4.46439e-05
2.24013e-05
3.89377e-05
2.76073e-05
1.94281e-05
3.26709e-05
1.78578e-05
2.87015e-05
1.94467e-05
3.26636e-05
1.78474e-05
2.24062e-05
2.76126e-05
4.46507e-05
3.89491e-05
3.89572e-05
2.76256e-05
2.23859e-05
2.23869e-05
3.89559e-05
2.76241e-05
4.46474e-05
2.24049e-05
3.89474e-05
2.76111e-05
1.94458e-05
2.8709e-05
3.26649e-05
1.78482e-05
3.26718e-05
1.78584e-05
1.94271e-05
3.70606e-05
1.79962e-05
2.47361e-05
2.47309e-05
2.47461e-05
2.47512e-05
3.70542e-05
3.70559e-05
1.79768e-05
2.47497e-05
2.47445e-05
2.47346e-05
3.70621e-05
2.47293e-05
1.94461e-05
1.78481e-05
3.26613e-05
2.8709e-05
1.78582e-05
3.26682e-05
1.94256e-05
2.23831e-05
2.76202e-05
4.46427e-05
3.89507e-05
2.7604e-05
3.8939e-05
2.2401e-05
2.24006e-05
3.89405e-05
4.4646e-05
2.76056e-05
2.76186e-05
3.89487e-05
2.23822e-05
1.94267e-05
2.87015e-05
1.78591e-05
3.26705e-05
1.78474e-05
3.26602e-05
1.94452e-05
1.94259e-05
3.26675e-05
1.78574e-05
2.87015e-05
1.94445e-05
3.26603e-05
1.78471e-05
2.24015e-05
2.76026e-05
4.46428e-05
3.89432e-05