/*--------------------------------*- C++ -*----------------------------------*\
| =========                 |                                                 |
| \\      /  F ield         | OpenFOAM: The Open Source CFD Toolbox           |
|  \\    /   O peration     | Version:  v1912                                 |
|   \\  /    A nd           | Website:  www.openfoam.com                      |
|    \\/     M anipulation  |                                                 |
\*---------------------------------------------------------------------------*/
FoamFile
{
    version     2.0;
    format      ascii;
    class       volScalarField;
    location    "100";
    object      nut;
}
// * * * * * * * * * * * * * * * * * * * * * * * * * * * * * * * * * * * * * //

dimensions      [0 2 -1 0 0 0 0];


internalField   nonuniform List<scalar> 
57566
(
2.36028e-05
6.71174e-05
9.9891e-05
0.000122811
6.57086e-05
8.30085e-05
6.06282e-05
6.06279e-05
2.36043e-05
2.36036e-05
8.29159e-05
6.06181e-05
6.06253e-05
6.82449e-05
4.94073e-05
6.82486e-05
4.94099e-05
6.70831e-05
9.98753e-05
6.56872e-05
0.000122807
6.70899e-05
9.98574e-05
6.56858e-05
0.000122795
2.36047e-05
8.29176e-05
6.06242e-05
6.06167e-05
2.36046e-05
6.82559e-05
4.94017e-05
6.71016e-05
9.98485e-05
0.000122796
6.56969e-05
6.82575e-05
4.94062e-05
6.7091e-05
9.98858e-05
6.56838e-05
0.000122811
6.82431e-05
4.94012e-05
6.71036e-05
9.98509e-05
0.000122803
6.56884e-05
6.71008e-05
9.98751e-05
0.000122809
6.57028e-05
6.8255e-05
4.94046e-05
6.70887e-05
9.99015e-05
6.56836e-05
0.000122815
6.82496e-05
4.94078e-05
6.71028e-05
9.98777e-05
0.000122815
6.56944e-05
6.82413e-05
4.94042e-05
8.30044e-05
6.06187e-05
6.06288e-05
2.36047e-05
2.36018e-05
8.29189e-05
6.06111e-05
6.06219e-05
2.36038e-05
6.71068e-05
9.98912e-05
0.000122812
6.56934e-05
6.82598e-05
4.94044e-05
6.82597e-05
4.94054e-05
6.71183e-05
9.98932e-05
0.000122816
6.57003e-05
6.71085e-05
9.98937e-05
0.000122817
6.56865e-05
6.82471e-05
4.9404e-05
6.82468e-05
4.94049e-05
2.36044e-05
2.36038e-05
8.29231e-05
6.06212e-05
6.06209e-05
2.36034e-05
2.36029e-05
2.36019e-05
7.01257e-05
2.15477e-05
2.15448e-05
2.15468e-05
2.1544e-05
7.0134e-05
7.3111e-05
4.70302e-05
6.062e-05
7.12352e-05
7.12262e-05
4.70297e-05
7.31197e-05
7.31645e-05
4.70222e-05
6.06199e-05
7.12487e-05
7.12406e-05
4.70218e-05
7.31725e-05
2.36051e-05
2.36044e-05
7.01321e-05
2.15475e-05
2.15436e-05
7.01236e-05
2.15481e-05
2.1545e-05
7.31314e-05
4.70313e-05
7.12387e-05
6.06255e-05
7.31211e-05
4.70312e-05
7.12456e-05
7.3176e-05
4.7021e-05
7.12485e-05
6.06321e-05
7.31617e-05
4.7022e-05
7.12613e-05
3.61575e-05
4.03396e-05
6.94497e-05
6.82521e-05
3.61571e-05
4.034e-05
6.94598e-05
2.01861e-05
6.76304e-05
4.94076e-05
2.01853e-05
6.76443e-05
3.61601e-05
4.03403e-05
6.94609e-05
6.8257e-05
3.61596e-05
4.03407e-05
6.94711e-05
2.01876e-05
6.76552e-05
4.94102e-05
2.01865e-05
6.76684e-05
2.36055e-05
7.01336e-05
2.15446e-05
2.15469e-05
7.01251e-05
2.15455e-05
2.15477e-05
7.31666e-05
4.70223e-05
7.12482e-05
6.06314e-05
7.12556e-05
7.3154e-05
4.70227e-05
7.31263e-05
4.70299e-05
7.12384e-05
6.06247e-05
7.31145e-05
4.70302e-05
7.12451e-05
2.36055e-05
3.61567e-05
6.82443e-05
4.03402e-05
6.94582e-05
4.03399e-05
6.94458e-05
3.61572e-05
2.01849e-05
6.76409e-05
4.94014e-05
6.76258e-05
2.0186e-05
3.61596e-05
6.94628e-05
4.03398e-05
6.82661e-05
3.6159e-05
6.94729e-05
4.03402e-05
2.01878e-05
6.76541e-05
4.94065e-05
2.01867e-05
6.76669e-05
3.61571e-05
4.03397e-05
6.94455e-05
6.82506e-05
3.61565e-05
4.034e-05
6.9457e-05
2.01859e-05
6.7626e-05
4.94015e-05
2.01847e-05
6.76404e-05
3.61577e-05
6.82427e-05
4.03402e-05
6.94613e-05
4.03398e-05
6.94498e-05
3.61582e-05
2.01857e-05
6.76448e-05
4.94043e-05
6.7631e-05
2.01868e-05
3.61604e-05
6.9459e-05
4.03399e-05
6.82579e-05
3.61599e-05
6.94694e-05
4.03403e-05
2.01881e-05
6.7652e-05
4.94081e-05
2.0187e-05
6.76655e-05
3.6158e-05
4.03396e-05
6.94493e-05
6.82478e-05
3.61575e-05
4.034e-05
6.94602e-05
2.01867e-05
6.76308e-05
4.94044e-05
2.01856e-05
6.76445e-05
7.01269e-05
2.15442e-05
2.15475e-05
2.15433e-05
2.15467e-05
7.01352e-05
7.31591e-05
4.70203e-05
6.06095e-05
7.12475e-05
4.70199e-05
7.12392e-05
7.31684e-05
7.31196e-05
4.70309e-05
6.06207e-05
7.12506e-05
7.12424e-05
4.70305e-05
7.31288e-05
2.36039e-05
2.36027e-05
7.01352e-05
2.15432e-05
2.15465e-05
7.01277e-05
2.15441e-05
2.15474e-05
7.31697e-05
4.70197e-05
7.12442e-05
6.06168e-05
7.12471e-05
7.31626e-05
4.70201e-05
7.31309e-05
4.70303e-05
7.12479e-05
6.06271e-05
7.31238e-05
4.70307e-05
7.12512e-05
2.36046e-05
3.6158e-05
6.82484e-05
6.94608e-05
4.03406e-05
6.94497e-05
4.03403e-05
3.61585e-05
2.01859e-05
6.76442e-05
4.94041e-05
6.76304e-05
2.0187e-05
3.61599e-05
6.82483e-05
6.94692e-05
4.03407e-05
6.94577e-05
4.03404e-05
3.61604e-05
2.0187e-05
6.76641e-05
4.94051e-05
6.76508e-05
2.01881e-05
3.61583e-05
6.94474e-05
4.03401e-05
6.82552e-05
3.61578e-05
6.94582e-05
4.03405e-05
2.01868e-05
6.76301e-05
4.94042e-05
2.01857e-05
6.76438e-05
3.61603e-05
6.94564e-05
4.03402e-05
6.82547e-05
3.61597e-05
6.94676e-05
4.03405e-05
2.0188e-05
6.76505e-05
4.94052e-05
2.01869e-05
6.76636e-05
2.36036e-05
2.3603e-05
7.01341e-05
2.15466e-05
2.15438e-05
7.01266e-05
2.15475e-05
2.15447e-05
7.31257e-05
4.70295e-05
7.12334e-05
6.06263e-05
7.31168e-05
7.12374e-05
4.703e-05
7.31754e-05
4.70216e-05
7.12469e-05
6.06262e-05
7.31683e-05
7.12503e-05
4.7022e-05
2.36042e-05
2.36037e-05
0.000145828
0.000168886
0.0001689
0.000187929
0.000145836
0.00016889
0.000168901
0.000187924
0.000145842
0.0001689
0.000168911
0.000187946
0.00014584
0.000168893
0.000168909
0.000187938
0.000145829
0.000168888
0.000168902
0.000187931
0.000145838
0.000168893
0.000168903
0.000187925
7.35184e-05
6.71228e-05
7.61042e-05
6.82913e-05
7.60627e-05
6.82969e-05
7.35563e-05
6.98216e-05
6.78781e-05
6.56965e-05
6.96392e-05
6.96452e-05
6.78799e-05
6.98388e-05
7.41029e-05
8.29119e-05
7.36759e-05
7.36769e-05
7.36837e-05
7.36845e-05
7.41034e-05
7.41064e-05
8.30121e-05
7.36864e-05
7.36904e-05
7.41134e-05
7.36793e-05
7.36832e-05
7.35534e-05
6.8269e-05
7.60442e-05
6.70868e-05
7.35169e-05
6.82696e-05
7.60738e-05
6.98146e-05
6.78439e-05
6.96517e-05
6.57e-05
6.96401e-05
6.98041e-05
6.78277e-05
7.35574e-05
6.82827e-05
7.60464e-05
6.7094e-05
7.3521e-05
6.82845e-05
7.60764e-05
6.98216e-05
6.78604e-05
6.96489e-05
6.56979e-05
6.98104e-05
6.78442e-05
6.96444e-05
7.41041e-05
8.30143e-05
7.36871e-05
7.36881e-05
7.36798e-05
7.41116e-05
7.36809e-05
7.35146e-05
6.71029e-05
7.6082e-05
6.83785e-05
7.60477e-05
6.83944e-05
7.35551e-05
6.98081e-05
6.78706e-05
6.56832e-05
6.96212e-05
6.78707e-05
6.98254e-05
6.96229e-05
7.35537e-05
6.82807e-05
7.60467e-05
6.70946e-05
7.35173e-05
6.82795e-05
7.60781e-05
6.9806e-05
6.77766e-05
6.96524e-05
6.56977e-05
6.96427e-05
6.98005e-05
6.77614e-05
7.35594e-05
7.60467e-05
6.83785e-05
6.71103e-05
7.35228e-05
7.60884e-05
6.8378e-05
6.98344e-05
6.78692e-05
6.96204e-05
6.57e-05
6.98129e-05
6.78651e-05
6.96224e-05
7.35215e-05
6.71018e-05
7.60884e-05
6.83813e-05
7.60542e-05
6.83968e-05
7.35616e-05
6.9817e-05
6.78777e-05
6.56913e-05
6.96324e-05
6.96385e-05
6.78695e-05
6.98342e-05
7.35553e-05
6.82773e-05
7.60529e-05
6.70923e-05
7.35184e-05
6.82783e-05
7.60859e-05
6.98193e-05
6.78561e-05
6.96418e-05
6.57e-05
6.98077e-05
6.96396e-05
6.78402e-05
7.35655e-05
7.60534e-05
6.8381e-05
6.71092e-05
7.35291e-05
7.60947e-05
6.83805e-05
6.98433e-05
6.78783e-05
6.9629e-05
6.57058e-05
6.98219e-05
6.78747e-05
6.96308e-05
7.41033e-05
8.29081e-05
7.367e-05
7.36792e-05
7.3687e-05
7.36776e-05
7.41036e-05
7.41123e-05
8.30109e-05
7.36677e-05
7.3677e-05
7.36717e-05
7.41028e-05
7.36809e-05
7.35198e-05
6.71093e-05
7.60836e-05
6.8389e-05
7.60499e-05
6.84046e-05
7.35603e-05
6.98183e-05
6.78854e-05
6.56852e-05
6.96315e-05
6.96393e-05
6.78867e-05
6.98359e-05
7.35577e-05
7.60672e-05
6.82937e-05
6.71234e-05
7.35221e-05
7.61087e-05
6.82987e-05
6.98473e-05
6.7876e-05
6.96359e-05
6.5712e-05
6.98257e-05
6.96378e-05
6.78718e-05
7.35642e-05
7.60474e-05
6.83887e-05
6.71158e-05
7.35276e-05
7.60901e-05
6.83881e-05
6.98444e-05
6.78838e-05
6.96278e-05
6.56986e-05
6.98223e-05
6.78799e-05
6.96296e-05
7.41124e-05
8.30155e-05
7.36736e-05
7.36745e-05
7.41027e-05
7.36776e-05
7.36786e-05
2.36048e-05
2.36033e-05
8.29183e-05
6.06463e-05
6.06453e-05
6.82922e-05
4.94088e-05
6.82923e-05
6.72182e-05
9.98667e-05
6.57442e-05
0.000122811
6.72241e-05
0.000122802
6.83008e-05
4.94065e-05
6.72267e-05
9.98857e-05
6.57407e-05
0.000122807
6.82969e-05
4.94021e-05
6.72264e-05
9.98523e-05
0.0001228
6.57305e-05
2.36018e-05
8.29158e-05
6.06357e-05
6.06437e-05
2.36038e-05
6.72215e-05
9.98825e-05
0.000122809
6.57414e-05
6.72259e-05
0.000122813
6.82936e-05
4.94048e-05
6.82977e-05
2.36057e-05
2.36043e-05
7.01336e-05
2.15462e-05
2.15433e-05
7.01256e-05
2.15472e-05
2.15443e-05
7.31733e-05
4.70326e-05
7.12846e-05
6.06478e-05
7.31729e-05
4.70329e-05
7.12852e-05
7.32038e-05
4.70215e-05
7.12958e-05
6.06471e-05
7.32001e-05
4.70219e-05
7.12962e-05
3.61579e-05
4.03398e-05
6.94832e-05
6.82952e-05
3.61573e-05
4.03403e-05
6.94874e-05
2.01864e-05
6.76469e-05
4.94093e-05
2.01852e-05
6.76579e-05
3.61602e-05
4.03404e-05
6.94924e-05
6.82963e-05
3.61596e-05
4.03409e-05
6.94959e-05
3.61597e-05
6.9494e-05
4.03399e-05
6.8305e-05
3.61591e-05
6.9498e-05
4.03403e-05
2.01877e-05
6.76674e-05
4.94068e-05
2.01865e-05
6.7678e-05
3.61575e-05
4.034e-05
6.94823e-05
6.83003e-05
3.61568e-05
4.03404e-05
6.94868e-05
2.0186e-05
6.76423e-05
4.94024e-05
2.01848e-05
6.76536e-05
2.36028e-05
7.01468e-05
2.15432e-05
2.15465e-05
7.01399e-05
2.15442e-05
2.15475e-05
7.3202e-05
4.70212e-05
7.12932e-05
6.06389e-05
7.12935e-05
7.31965e-05
4.70216e-05
7.31636e-05
4.7032e-05
7.12963e-05
6.06455e-05
7.3158e-05
4.70322e-05
7.12967e-05
2.36047e-05
3.61582e-05
6.9481e-05
4.03396e-05
6.8295e-05
3.61576e-05
6.94858e-05
4.034e-05
2.0187e-05
6.76469e-05
4.94051e-05
2.01858e-05
6.76576e-05
3.61599e-05
6.94892e-05
4.03401e-05
6.83009e-05
3.61593e-05
6.94937e-05
4.03405e-05
0.000145836
0.000168912
0.000168916
0.000187959
0.000168915
0.000187962
0.000145826
0.000168912
0.000168914
0.00018795
0.000168925
0.000187956
7.41827e-05
8.30144e-05
7.37153e-05
7.37111e-05
7.42e-05
7.37132e-05
7.37093e-05
7.35806e-05
6.83854e-05
7.60907e-05
6.71915e-05
7.35469e-05
6.83625e-05
7.61226e-05
6.98558e-05
6.78405e-05
6.9652e-05
6.57462e-05
6.96686e-05
6.98343e-05
6.78766e-05
7.35823e-05
6.83968e-05
7.60914e-05
6.71973e-05
7.35498e-05
6.83742e-05
7.61232e-05
7.3582e-05
6.83962e-05
7.60932e-05
6.71998e-05
7.35482e-05
6.8373e-05
7.61249e-05
6.98581e-05
6.78507e-05
6.96526e-05
6.57461e-05
6.96677e-05
6.98363e-05
6.78801e-05
7.35784e-05
7.60916e-05
6.83898e-05
6.71993e-05
7.3545e-05
7.61232e-05
6.83668e-05
6.98495e-05
6.78374e-05
6.96436e-05
6.57354e-05
6.98278e-05
6.78672e-05
6.9651e-05
7.41808e-05
8.30096e-05
7.37125e-05
7.37191e-05
7.37102e-05
7.41983e-05
7.3717e-05
7.35792e-05
7.60902e-05
6.83869e-05
6.71957e-05
7.35444e-05
7.61222e-05
6.84176e-05
6.98588e-05
6.7841e-05
6.96521e-05
6.57429e-05
6.9835e-05
6.96604e-05
6.78836e-05
7.35769e-05
7.60923e-05
6.83929e-05
6.71991e-05
7.35443e-05
7.61241e-05
6.83708e-05
0.000145837
9.9898e-05
9.98862e-05
8.29312e-05
0.000145836
9.98941e-05
9.98837e-05
8.29306e-05
9.98696e-05
9.98546e-05
9.98574e-05
9.98538e-05
8.29291e-05
8.30182e-05
9.98786e-05
9.98963e-05
9.9877e-05
9.9894e-05
9.9883e-05
9.9893e-05
8.30078e-05
8.29284e-05
9.98664e-05
9.98574e-05
8.29294e-05
9.98865e-05
9.98575e-05
9.98778e-05
8.29218e-05
9.98932e-05
6.82971e-05
4.94088e-05
6.82881e-05
4.94076e-05
2.36041e-05
2.3605e-05
0.000145839
0.000145824
0.000145841
0.000145837
0.000145839
0.000145825
0.000145841
6.7222e-05
6.57364e-05
0.000122808
9.98994e-05
6.57442e-05
0.00012281
6.72232e-05
6.72212e-05
0.000122805
6.57429e-05
9.98834e-05
0.000122808
6.72227e-05
6.57498e-05
6.06454e-05
6.06456e-05
8.30178e-05
6.06498e-05
6.06499e-05
6.82983e-05
4.94081e-05
6.82893e-05
4.94091e-05
2.36041e-05
2.3605e-05
6.83069e-05
4.94068e-05
4.94068e-05
6.82986e-05
0.000145841
0.000145826
0.000145841
6.71816e-05
6.57365e-05
0.000122808
9.98939e-05
6.72239e-05
6.57373e-05
0.00012281
2.36018e-05
2.36027e-05
6.72211e-05
0.000122806
6.57419e-05
9.98829e-05
6.72229e-05
0.000122809
6.57496e-05
6.06451e-05
6.06455e-05
8.30172e-05
6.06479e-05
6.06483e-05
6.83011e-05
4.94098e-05
4.94101e-05
6.8291e-05
6.72169e-05
6.57445e-05
0.000122808
9.98554e-05
0.00012281
6.72188e-05
6.57506e-05
6.72227e-05
6.57469e-05
0.000122799
9.98551e-05
6.57541e-05
0.000122802
6.72243e-05
6.82836e-05
4.94084e-05
6.82959e-05
4.94072e-05
6.82892e-05
4.94101e-05
4.94097e-05
6.83004e-05
6.7214e-05
9.98624e-05
6.57517e-05
0.000122807
0.000122809
6.72167e-05
6.57411e-05
6.72201e-05
9.98546e-05
6.57547e-05
0.0001228
6.57432e-05
0.0001228
6.72232e-05
6.06445e-05
6.06378e-05
8.30187e-05
6.06491e-05
6.06443e-05
2.36045e-05
2.36054e-05
2.3605e-05
2.36041e-05
8.29261e-05
6.06497e-05
6.0644e-05
6.06428e-05
6.06373e-05
2.36054e-05
2.36045e-05
6.83009e-05
4.94084e-05
4.94087e-05
6.82907e-05
6.72228e-05
0.000122807
6.57426e-05
9.98817e-05
0.00012281
6.575e-05
6.72245e-05
6.82992e-05
4.9405e-05
4.94053e-05
6.82882e-05
6.72193e-05
9.98978e-05
6.5745e-05
0.000122808
6.57333e-05
0.000122809
6.7223e-05
6.82884e-05
4.94087e-05
4.94083e-05
6.8302e-05
6.72201e-05
9.98796e-05
0.000122808
6.57507e-05
0.000122808
6.57392e-05
6.72235e-05
6.82869e-05
4.94053e-05
4.94049e-05
6.83006e-05
6.72246e-05
0.000122811
6.57433e-05
9.98983e-05
0.000122814
6.57504e-05
6.72266e-05
6.82992e-05
4.94047e-05
6.82885e-05
4.94049e-05
6.83025e-05
4.94054e-05
4.94057e-05
6.82937e-05
6.72185e-05
9.98804e-05
0.000122807
6.57502e-05
0.000122808
6.72221e-05
6.57387e-05
6.72218e-05
9.98962e-05
0.000122813
6.5751e-05
0.000122813
6.57397e-05
6.72252e-05
6.82866e-05
4.94051e-05
6.83032e-05
4.94046e-05
6.8291e-05
4.94057e-05
4.94053e-05
6.83043e-05
2.36034e-05
2.36043e-05
2.36028e-05
2.36037e-05
8.29164e-05
6.06495e-05
6.06498e-05
6.06434e-05
6.06434e-05
2.36043e-05
2.36034e-05
2.36037e-05
2.36028e-05
2.36043e-05
2.36057e-05
2.36036e-05
2.36042e-05
6.06426e-05
6.0644e-05
8.30104e-05
6.06504e-05
6.06495e-05
6.82983e-05
4.94097e-05
6.82877e-05
4.94101e-05
6.72176e-05
6.57413e-05
0.000122812
9.98669e-05
6.72142e-05
6.57525e-05
0.000122812
6.72236e-05
6.57438e-05
0.000122802
9.98567e-05
6.72207e-05
6.5742e-05
0.000122802
6.06434e-05
6.06368e-05
8.30174e-05
6.06489e-05
6.06419e-05
2.36045e-05
2.36054e-05
6.72263e-05
6.57415e-05
0.000122807
9.98863e-05
6.5749e-05
0.000122808
6.72284e-05
6.83033e-05
4.94021e-05
4.94024e-05
6.82951e-05
6.7226e-05
0.000122797
6.57313e-05
9.98536e-05
0.0001228
6.57389e-05
6.72283e-05
6.83039e-05
4.94083e-05
6.82912e-05
4.94087e-05
6.71836e-05
0.00012281
6.57397e-05
9.98772e-05
6.72209e-05
0.000122809
6.57381e-05
6.83026e-05
4.94049e-05
6.82902e-05
4.94053e-05
6.06338e-05
6.06429e-05
8.30088e-05
6.06406e-05
6.06479e-05
2.36037e-05
2.36047e-05
6.72255e-05
0.000122813
6.57402e-05
9.98925e-05
6.72224e-05
0.000122812
6.57384e-05
6.83002e-05
4.94048e-05
6.82929e-05
4.94051e-05
6.83036e-05
4.94053e-05
6.82937e-05
4.94057e-05
2.36034e-05
2.36043e-05
2.36029e-05
2.36037e-05
3.61568e-05
4.03398e-05
6.8289e-05
6.94903e-05
4.03396e-05
6.94795e-05
3.61574e-05
2.01861e-05
6.76459e-05
4.94088e-05
6.76569e-05
2.01852e-05
3.61577e-05
6.82958e-05
4.03398e-05
6.94819e-05
4.03402e-05
6.94869e-05
3.61573e-05
2.01849e-05
6.7658e-05
4.94076e-05
6.76453e-05
2.01861e-05
2.3605e-05
2.36041e-05
7.01412e-05
2.15476e-05
2.15448e-05
2.15467e-05
2.15438e-05
7.01471e-05
7.31611e-05
7.12875e-05
6.06489e-05
4.70311e-05
7.12917e-05
4.70314e-05
7.31537e-05
7.32067e-05
7.13008e-05
6.06489e-05
4.7023e-05
7.13051e-05
4.70234e-05
7.32001e-05
7.31493e-05
4.70315e-05
6.06445e-05
7.12886e-05
7.12876e-05
4.7031e-05
7.31549e-05
7.3195e-05
4.70234e-05
6.06446e-05
7.1301e-05
7.13009e-05
4.7023e-05
7.32005e-05
7.0148e-05
2.15466e-05
2.15438e-05
2.15476e-05
2.15448e-05
7.01406e-05
3.61573e-05
6.82902e-05
4.03402e-05
6.9491e-05
4.03398e-05
6.94804e-05
3.61579e-05
2.01864e-05
6.76473e-05
4.94087e-05
2.01852e-05
6.76593e-05
3.61579e-05
6.82966e-05
4.03398e-05
6.94824e-05
3.61573e-05
4.03403e-05
6.94879e-05
2.01852e-05
6.76601e-05
4.94087e-05
6.76463e-05
2.01864e-05
2.3605e-05
2.36041e-05
3.61592e-05
6.95016e-05
4.03403e-05
6.82989e-05
6.94909e-05
4.03399e-05
3.61597e-05
2.01877e-05
4.94068e-05
6.76671e-05
6.76784e-05
2.01865e-05
2.01865e-05
6.76791e-05
4.94064e-05
6.76663e-05
2.01877e-05
3.61597e-05
6.83054e-05
6.94937e-05
4.03399e-05
6.94986e-05
4.03403e-05
3.61591e-05
2.36027e-05
2.36018e-05
7.01416e-05
2.15476e-05
2.15448e-05
2.15467e-05
2.15438e-05
7.01465e-05
7.31608e-05
7.12877e-05
4.70311e-05
6.06488e-05
7.31532e-05
7.12917e-05
4.70314e-05
7.3208e-05
7.12993e-05
4.7023e-05
6.06487e-05
7.32004e-05
7.13039e-05
4.70234e-05
7.01483e-05
2.15466e-05
2.15438e-05
7.01408e-05
2.15476e-05
2.15448e-05
7.31492e-05
4.70315e-05
6.06443e-05
7.12884e-05
7.12877e-05
4.7031e-05
7.31533e-05
7.31973e-05
4.70235e-05
6.06445e-05
7.13008e-05
7.13002e-05
4.7023e-05
7.32019e-05
3.61595e-05
4.03406e-05
6.95007e-05
6.82928e-05
4.03404e-05
6.94898e-05
3.61601e-05
2.01875e-05
4.94101e-05
6.76667e-05
6.76786e-05
2.01863e-05
2.01863e-05
6.76793e-05
4.94097e-05
6.7666e-05
2.01875e-05
3.61601e-05
6.8299e-05
4.03404e-05
6.94912e-05
4.03408e-05
6.94965e-05
3.61595e-05
3.61574e-05
4.03393e-05
6.82904e-05
6.94764e-05
3.61568e-05
4.03398e-05
6.94868e-05
2.01849e-05
6.76604e-05
4.9408e-05
2.01864e-05
6.76462e-05
3.61571e-05
6.82875e-05
4.03402e-05
6.94902e-05
3.61579e-05
4.03396e-05
6.94793e-05
2.01861e-05
6.76447e-05
4.94079e-05
2.01849e-05
6.76576e-05
3.61601e-05
4.03402e-05
6.94872e-05
6.82961e-05
3.61595e-05
4.03407e-05
6.94979e-05
2.01863e-05
4.94097e-05
6.76799e-05
6.7666e-05
2.01875e-05
2.01875e-05
6.76651e-05
4.94101e-05
2.01863e-05
6.76788e-05
3.61595e-05
6.82925e-05
4.03409e-05
6.95007e-05
4.03402e-05
6.94899e-05
3.61601e-05
7.01413e-05
2.15453e-05
2.15477e-05
2.15443e-05
2.15467e-05
7.01473e-05
7.32106e-05
7.13043e-05
6.06479e-05
4.70239e-05
4.70242e-05
7.13058e-05
7.32043e-05
7.3166e-05
7.12928e-05
6.06421e-05
4.7031e-05
7.12969e-05
4.70313e-05
7.31595e-05
7.31984e-05
4.70243e-05
6.06436e-05
7.13031e-05
4.70238e-05
7.13019e-05
7.32038e-05
7.31542e-05
4.70314e-05
6.06387e-05
7.12944e-05
7.12935e-05
4.70309e-05
7.31594e-05
7.01483e-05
2.15443e-05
2.15467e-05
2.15453e-05
2.15477e-05
7.01409e-05
2.36054e-05
2.36045e-05
2.36041e-05
2.3605e-05
7.0148e-05
2.15443e-05
2.15467e-05
7.01403e-05
2.15453e-05
2.15477e-05
7.32026e-05
7.1306e-05
6.06441e-05
4.70243e-05
7.13051e-05
4.70238e-05
7.32105e-05
7.31585e-05
7.1291e-05
6.06384e-05
4.70314e-05
4.70309e-05
7.12898e-05
7.31661e-05
7.32088e-05
4.70237e-05
7.13015e-05
6.06482e-05
7.13069e-05
7.32006e-05
4.70242e-05
7.3165e-05
4.70309e-05
7.12901e-05
6.06428e-05
7.31563e-05
4.70313e-05
7.12931e-05
7.01397e-05
2.15453e-05
2.15477e-05
2.15443e-05
2.15467e-05
7.01473e-05
2.36045e-05
2.36055e-05
3.616e-05
6.9499e-05
4.03404e-05
6.82924e-05
6.94877e-05
4.034e-05
3.61606e-05
2.01881e-05
4.94087e-05
6.76657e-05
6.76774e-05
2.01869e-05
2.01869e-05
6.76781e-05
4.94083e-05
6.7665e-05
2.01881e-05
3.61606e-05
6.82983e-05
6.94896e-05
4.034e-05
6.94948e-05
4.03404e-05
3.616e-05
3.61578e-05
4.03403e-05
6.94927e-05
6.82905e-05
4.03399e-05
6.94817e-05
3.61584e-05
2.01868e-05
4.94053e-05
6.76461e-05
6.76579e-05
2.01856e-05
2.01856e-05
6.76587e-05
4.9405e-05
6.76449e-05
2.01868e-05
3.61584e-05
6.82966e-05
4.03399e-05
6.94836e-05
4.03403e-05
6.94889e-05
3.61578e-05
3.61606e-05
6.94857e-05
4.034e-05
6.82948e-05
3.616e-05
6.94966e-05
4.03405e-05
2.01869e-05
4.94084e-05
6.76784e-05
6.76651e-05
2.01881e-05
2.01881e-05
6.76642e-05
4.94087e-05
2.01869e-05
6.76772e-05
3.616e-05
6.82926e-05
6.94995e-05
4.03405e-05
6.94886e-05
4.034e-05
3.61606e-05
3.61584e-05
4.03399e-05
6.94794e-05
6.82934e-05
3.61578e-05
4.03404e-05
6.94901e-05
2.01856e-05
4.9405e-05
6.7659e-05
6.7645e-05
2.01868e-05
2.01868e-05
6.76441e-05
4.94053e-05
2.01856e-05
6.76578e-05
3.61578e-05
6.82914e-05
4.03404e-05
6.94931e-05
4.03399e-05
6.94822e-05
3.61584e-05
3.61577e-05
4.03401e-05
6.82905e-05
6.94893e-05
6.94777e-05
4.03396e-05
3.61582e-05
2.0187e-05
6.76469e-05
4.9405e-05
6.76584e-05
2.01858e-05
3.61583e-05
6.82964e-05
6.94794e-05
4.03396e-05
6.94852e-05
4.03401e-05
3.61577e-05
2.01859e-05
6.7659e-05
4.94046e-05
6.76459e-05
2.0187e-05
3.61593e-05
6.94967e-05
4.03405e-05
6.82945e-05
6.94853e-05
4.03401e-05
3.61599e-05
2.01875e-05
4.94057e-05
6.76594e-05
6.76719e-05
2.01863e-05
2.01863e-05
6.76728e-05
4.94053e-05
6.76583e-05
2.01875e-05
3.61599e-05
6.83011e-05
6.94875e-05
4.03401e-05
6.9493e-05
4.03405e-05
3.61592e-05
3.61582e-05
4.03396e-05
6.82928e-05
6.94752e-05
3.61576e-05
6.9487e-05
4.03401e-05
2.01858e-05
6.76592e-05
4.94048e-05
6.76459e-05
2.0187e-05
3.61576e-05
6.82919e-05
6.94903e-05
4.03401e-05
6.94787e-05
4.03396e-05
3.61582e-05
2.0187e-05
6.76452e-05
4.94049e-05
2.01858e-05
6.76581e-05
3.61599e-05
6.94833e-05
4.03401e-05
6.82976e-05
3.61593e-05
6.94947e-05
4.03405e-05
2.01863e-05
4.94054e-05
6.76732e-05
6.76586e-05
2.01875e-05
2.01875e-05
6.76575e-05
4.94057e-05
2.01863e-05
6.7672e-05
3.61593e-05
6.82957e-05
6.9498e-05
4.03405e-05
6.94867e-05
4.03401e-05
3.61599e-05
2.36043e-05
2.36034e-05
2.36037e-05
2.36028e-05
7.01479e-05
2.15467e-05
2.15438e-05
7.01403e-05
2.15476e-05
2.15448e-05
7.31525e-05
7.12915e-05
6.06443e-05
4.70315e-05
7.31599e-05
7.12878e-05
4.7031e-05
7.31991e-05
7.13023e-05
6.06445e-05
4.70234e-05
7.32065e-05
7.12989e-05
4.70229e-05
7.31591e-05
4.7031e-05
7.12846e-05
6.06485e-05
7.31509e-05
7.12899e-05
4.70314e-05
7.32054e-05
4.70229e-05
7.12961e-05
6.06487e-05
7.31969e-05
7.13007e-05
4.70234e-05
7.01398e-05
2.15476e-05
2.15448e-05
7.01475e-05
2.15466e-05
2.15438e-05
2.36034e-05
2.36043e-05
2.36028e-05
2.36037e-05
2.36054e-05
2.36048e-05
2.36042e-05
2.36033e-05
7.01245e-05
2.15472e-05
2.15443e-05
2.15463e-05
2.15439e-05
7.01316e-05
7.31832e-05
7.12831e-05
6.06492e-05
4.70277e-05
4.70315e-05
7.12869e-05
7.31691e-05
7.32091e-05
7.1297e-05
6.06485e-05
4.70263e-05
4.70234e-05
7.1298e-05
7.31983e-05
7.31708e-05
4.70331e-05
6.06449e-05
7.12875e-05
4.70324e-05
7.31778e-05
7.12843e-05
7.31965e-05
4.70219e-05
6.06441e-05
7.1298e-05
4.7022e-05
7.32038e-05
7.12953e-05
7.01315e-05
2.15458e-05
2.15443e-05
2.15471e-05
2.15451e-05
7.01219e-05
3.61596e-05
6.82898e-05
4.03409e-05
6.95006e-05
4.03404e-05
6.94901e-05
3.61602e-05
2.01875e-05
6.76652e-05
4.94101e-05
2.01863e-05
6.76789e-05
3.61601e-05
6.82963e-05
4.03405e-05
6.94874e-05
4.03409e-05
3.61595e-05
6.94978e-05
2.01863e-05
6.76786e-05
4.94097e-05
6.76661e-05
2.01875e-05
7.01409e-05
2.15452e-05
2.15477e-05
2.15443e-05
2.15467e-05
7.01458e-05
7.32092e-05
7.13008e-05
4.70238e-05
6.06489e-05
4.70242e-05
7.32028e-05
7.13022e-05
7.31656e-05
7.12894e-05
4.70309e-05
6.06424e-05
7.12931e-05
7.31589e-05
4.70313e-05
7.01479e-05
2.15443e-05
2.15467e-05
2.15453e-05
7.01405e-05
2.15477e-05
7.31969e-05
4.70242e-05
6.06446e-05
7.13035e-05
4.70238e-05
7.13e-05
7.32009e-05
7.31535e-05
4.70313e-05
6.06375e-05
7.12949e-05
7.12926e-05
4.70309e-05
7.31573e-05
2.36055e-05
2.36045e-05
3.61568e-05
4.03404e-05
6.949e-05
6.82955e-05
4.034e-05
6.94792e-05
3.61574e-05
2.0186e-05
4.94024e-05
6.76423e-05
6.76544e-05
2.01848e-05
2.01848e-05
6.76553e-05
4.9402e-05
6.76412e-05
2.0186e-05
3.61575e-05
6.83024e-05
4.034e-05
6.94815e-05
4.03404e-05
6.94868e-05
3.61568e-05
3.61601e-05
6.8297e-05
6.9498e-05
4.03405e-05
6.94888e-05
4.03401e-05
3.61606e-05
2.01881e-05
6.76643e-05
4.94087e-05
6.76775e-05
2.01869e-05
3.61606e-05
6.83024e-05
6.94861e-05
4.03401e-05
6.94966e-05
3.616e-05
4.03405e-05
2.01869e-05
6.76777e-05
4.94083e-05
6.76651e-05
2.01881e-05
3.61578e-05
6.82957e-05
4.03404e-05
6.94916e-05
4.034e-05
6.94826e-05
3.61584e-05
2.01868e-05
6.76443e-05
4.94053e-05
2.01856e-05
6.76581e-05
3.61584e-05
6.8301e-05
4.034e-05
6.94799e-05
3.61578e-05
4.03404e-05
6.94902e-05
2.01856e-05
6.7658e-05
4.94049e-05
6.76453e-05
2.01868e-05
7.01404e-05
2.15442e-05
2.15475e-05
2.15432e-05
2.15465e-05
7.01466e-05
7.32069e-05
7.12969e-05
6.0638e-05
4.70216e-05
4.70218e-05
7.12992e-05
7.32008e-05
7.31674e-05
7.12963e-05
6.06468e-05
4.70318e-05
7.13016e-05
4.70323e-05
7.31598e-05
7.31952e-05
4.70219e-05
6.06345e-05
7.1297e-05
4.70214e-05
7.12954e-05
7.32028e-05
7.3156e-05
4.70324e-05
6.06425e-05
7.13012e-05
7.12985e-05
4.70319e-05
7.31642e-05
7.01471e-05
2.15434e-05
2.15465e-05
2.15442e-05
2.15475e-05
7.01395e-05
2.36047e-05
2.36038e-05
3.61576e-05
6.82935e-05
6.94896e-05
4.034e-05
6.94787e-05
4.03396e-05
3.61582e-05
2.0187e-05
6.76451e-05
4.94051e-05
6.76584e-05
2.01858e-05
3.61582e-05
6.83011e-05
6.94764e-05
4.03396e-05
6.94874e-05
3.61576e-05
4.03401e-05
2.01858e-05
6.76591e-05
4.94048e-05
6.76457e-05
2.0187e-05
3.61593e-05
6.82957e-05
6.94979e-05
4.03405e-05
6.94871e-05
4.03401e-05
3.61599e-05
2.01875e-05
6.76579e-05
4.94057e-05
2.01863e-05
6.76723e-05
3.61599e-05
6.83019e-05
6.94844e-05
4.03401e-05
3.61593e-05
6.94952e-05
4.03405e-05
2.01863e-05
6.7672e-05
4.94053e-05
6.76587e-05
2.01875e-05
2.36043e-05
2.36034e-05
2.36037e-05
2.36028e-05
0.00016891
0.000168922
0.00014584
0.000168911
0.000168924
0.000187959
0.000187959
7.42046e-05
7.37178e-05
7.37187e-05
8.3027e-05
7.37172e-05
7.37182e-05
7.4198e-05
0.00016891
0.000168918
0.000145835
0.000168911
0.000168915
0.000187958
0.000187959
7.42044e-05
7.37172e-05
7.37184e-05
8.30268e-05
7.41976e-05
7.37167e-05
7.37179e-05
7.42077e-05
7.37188e-05
7.37195e-05
8.3022e-05
7.37191e-05
7.37181e-05
7.42012e-05
7.42037e-05
8.29263e-05
7.37198e-05
7.37204e-05
7.37167e-05
7.37171e-05
7.42043e-05
7.42005e-05
8.29092e-05
7.37185e-05
7.37196e-05
7.42012e-05
7.3715e-05
7.37161e-05
7.42072e-05
7.37157e-05
7.37115e-05
8.30176e-05
7.37149e-05
7.37105e-05
7.42003e-05
7.42071e-05
7.37146e-05
7.37154e-05
8.30192e-05
7.37188e-05
7.42006e-05
7.37178e-05
7.42051e-05
7.37132e-05
7.37192e-05
8.3013e-05
7.37188e-05
7.37125e-05
7.41984e-05
0.000168909
0.000168924
0.000145842
0.000168911
0.000168927
0.000187961
0.000187961
0.00016891
0.00016891
0.000145825
0.000168909
0.000168913
0.000187952
0.000187952
0.000168913
0.00016892
0.000145844
0.000168915
0.000168923
0.000187957
0.000187957
0.00014584
0.000168909
0.00016892
0.00016891
0.000168925
0.000187961
0.00018796
0.00014584
0.00016891
0.000168924
0.00016891
0.000168926
0.000187963
0.000187962
0.000145823
0.000168913
0.000168912
0.000168908
0.00016891
0.000187954
0.000187954
0.000145842
0.000168913
0.000168922
0.000168913
0.000168921
0.000187959
0.000187959
7.35466e-05
6.83903e-05
7.613e-05
6.72197e-05
6.83904e-05
7.60912e-05
7.35806e-05
6.98512e-05
6.96473e-05
6.57424e-05
6.78495e-05
6.96445e-05
6.78409e-05
6.98297e-05
6.98297e-05
6.78434e-05
6.57337e-05
6.96469e-05
6.96448e-05
6.78464e-05
6.98509e-05
7.35811e-05
6.72186e-05
6.8394e-05
7.60929e-05
6.83899e-05
7.61255e-05
7.35462e-05
7.35447e-05
7.61272e-05
6.7219e-05
6.83868e-05
7.60886e-05
6.83866e-05
7.35784e-05
6.9854e-05
6.96529e-05
6.78447e-05
6.57487e-05
6.78363e-05
6.98334e-05
6.96498e-05
7.35789e-05
6.7218e-05
7.609e-05
6.83907e-05
7.61227e-05
6.83861e-05
7.35444e-05
6.98328e-05
6.78388e-05
6.57394e-05
6.96519e-05
6.78415e-05
6.98529e-05
6.96499e-05
7.41956e-05
8.29373e-05
7.37184e-05
7.37194e-05
7.37155e-05
7.37165e-05
7.42016e-05
0.000168913
0.000168927
0.000145842
0.000168913
0.000168927
0.00018796
0.000187961
0.000168912
0.000168914
0.000145826
0.000168912
0.000168913
0.000187949
0.000187949
0.000168915
0.000168924
0.000145842
0.000168915
0.000168924
0.000187955
0.000187955
7.35466e-05
6.72238e-05
6.83614e-05
7.61221e-05
6.83909e-05
7.60912e-05
7.35791e-05
6.98518e-05
6.96469e-05
6.78497e-05
6.57425e-05
6.98306e-05
6.96442e-05
6.7841e-05
7.35812e-05
6.72195e-05
6.83947e-05
7.60933e-05
7.35462e-05
6.83907e-05
7.61257e-05
6.98301e-05
6.78712e-05
6.57337e-05
6.96642e-05
6.96448e-05
6.78448e-05
6.9849e-05
7.35449e-05
6.72191e-05
7.61264e-05
6.83866e-05
7.60881e-05
6.83863e-05
7.35787e-05
6.98542e-05
6.9652e-05
6.78443e-05
6.57478e-05
6.98327e-05
6.96493e-05
6.78359e-05
7.35792e-05
6.72183e-05
7.60898e-05
6.839e-05
7.35446e-05
7.61224e-05
6.83858e-05
6.98326e-05
6.78384e-05
6.57392e-05
6.96518e-05
6.96496e-05
6.78412e-05
6.98534e-05
7.41953e-05
8.2938e-05
7.37164e-05
7.37177e-05
7.3715e-05
7.37162e-05
7.41783e-05
7.35469e-05
7.61269e-05
6.72149e-05
6.83834e-05
6.83831e-05
7.60881e-05
7.35805e-05
6.98559e-05
6.96552e-05
6.78413e-05
6.57501e-05
6.78329e-05
6.98359e-05
6.96527e-05
7.35817e-05
6.72142e-05
6.83871e-05
7.6091e-05
6.83828e-05
7.61232e-05
7.35473e-05
6.98335e-05
6.78357e-05
6.57405e-05
6.96534e-05
6.78386e-05
6.98525e-05
6.96512e-05
7.35507e-05
6.83953e-05
7.61282e-05
6.72207e-05
6.83953e-05
7.60886e-05
7.35846e-05
6.98564e-05
6.9654e-05
6.57526e-05
6.78558e-05
6.78472e-05
6.96512e-05
6.98353e-05
6.98351e-05
6.78497e-05
6.57438e-05
6.96537e-05
6.78526e-05
6.98548e-05
6.96515e-05
7.35853e-05
6.72199e-05
6.83992e-05
7.60917e-05
6.83948e-05
7.6124e-05
7.35506e-05
7.35815e-05
7.60861e-05
6.72145e-05
6.83828e-05
7.35464e-05
6.83829e-05
7.61259e-05
6.98356e-05
6.96523e-05
6.78356e-05
6.57414e-05
6.78385e-05
6.98481e-05
6.965e-05
7.35463e-05
6.72148e-05
6.83832e-05
7.61284e-05
6.83832e-05
7.60896e-05
7.35812e-05
6.98528e-05
6.78365e-05
6.96488e-05
6.57497e-05
6.98322e-05
6.78331e-05
6.96498e-05
7.3585e-05
6.83953e-05
7.60869e-05
6.72209e-05
7.35501e-05
6.83953e-05
7.61268e-05
6.98388e-05
6.96537e-05
6.57445e-05
6.78498e-05
6.78528e-05
6.96517e-05
6.98504e-05
6.9856e-05
6.78506e-05
6.96493e-05
6.5753e-05
6.98365e-05
6.78471e-05
6.96514e-05
7.35496e-05
6.72214e-05
6.83961e-05
7.61292e-05
6.83963e-05
7.60902e-05
7.35846e-05
7.41989e-05
8.29307e-05
7.37199e-05
7.37208e-05
7.37175e-05
7.37167e-05
7.42047e-05
7.42074e-05
8.30163e-05
7.37149e-05
7.37155e-05
7.37181e-05
7.42008e-05
7.37186e-05
7.35493e-05
7.61307e-05
6.83897e-05
6.72207e-05
7.60921e-05
6.83898e-05
7.35832e-05
6.98554e-05
6.96493e-05
6.57484e-05
6.78471e-05
6.96465e-05
6.78384e-05
6.98338e-05
6.98341e-05
6.78408e-05
6.57397e-05
6.96487e-05
6.96466e-05
6.78439e-05
6.98539e-05
7.35836e-05
6.72199e-05
7.60948e-05
6.83939e-05
7.61269e-05
6.83895e-05
7.3549e-05
7.35812e-05
6.83902e-05
7.60892e-05
6.72201e-05
7.35462e-05
6.83902e-05
7.61284e-05
6.98357e-05
6.96466e-05
6.57347e-05
6.7844e-05
6.98482e-05
6.96445e-05