/*--------------------------------*- C++ -*----------------------------------*\
| =========                 |                                                 |
| \\      /  F ield         | OpenFOAM: The Open Source CFD Toolbox           |
|  \\    /   O peration     | Version:  v1912                                 |
|   \\  /    A nd           | Website:  www.openfoam.com                      |
|    \\/     M anipulation  |                                                 |
\*---------------------------------------------------------------------------*/
FoamFile
{
    version     2.0;
    format      ascii;
    class       surfaceScalarField;
    location    "100";
    object      phi;
}
// * * * * * * * * * * * * * * * * * * * * * * * * * * * * * * * * * * * * * //

dimensions      [0 3 -1 0 0 0 0];
oriented        oriented;


internalField   nonuniform List<scalar> 
166251
(
-6.82461e-09
-1.40781e-08
9.89041e-05
-9.88832e-05
-1.38137e-09
5.9674e-08
0.000259765
-0.000259585
-2.38042e-07
-3.88923e-10
1.15971e-08
1.32557e-06
0.00113662
-5.70652e-09
-9.95059e-07
3.04171e-07
-3.14663e-07
9.96501e-07
-1.3169e-06
3.141e-07
-3.19249e-07
-3.71749e-09
0.00113877
5.69789e-09
-1.07713e-06
8.9008e-07
-8.91575e-07
1.07918e-06
1.63824e-08
3.67374e-08
0.000252405
-1.10672e-08
-0.000252304
-1.4373e-07
-1.36066e-06
-1.32568e-06
0.000276102
-0.000273987
2.82753e-07
2.88207e-07
-1.87903e-08
1.19117e-08
0.000284134
9.29267e-09
-0.000284097
-3.99301e-08
-1.87911e-08
1.19147e-08
0.000284077
9.87059e-09
-0.000284042
-3.76062e-08
1.65963e-08
4.43769e-09
9.88971e-05
1.43187e-08
4.44077e-09
9.88997e-05
1.36044e-06
1.31714e-06
0.00027399
-2.71501e-07
-2.76972e-07
1.69287e-08
-1.11837e-08
4.34566e-08
0.000284096
1.70486e-08
-8.79291e-09
4.08565e-08
0.00028405
1.68943e-10
5.76456e-08
-2.03772e-08
4.5188e-10
0.000236113
4.33943e-08
-5.72977e-09
0.000196765
5.76987e-08
-2.04095e-08
4.03889e-10
0.000236151
4.12879e-08
-4.46888e-09
-5.70113e-09
0.000196814
1.5786e-09
1.02702e-09
2.32607e-07
0.000259601
1.27301e-08
-4.70839e-09
1.36908e-06
-3.27863e-07
3.19539e-07
9.96675e-07
-3.14769e-07
2.98422e-07
-1.0008e-06
0.00113615
5.41472e-09
1.54171e-07
0.000252304
4.25747e-09
5.85176e-09
1.0851e-06
-8.97197e-07
-1.08278e-06
8.95905e-07
0.00113914
2.32124e-10
2.30098e-07
0.000259632
1.21378e-08
-1.36621e-06
1.18851e-09
1.00233e-06
-3.15016e-07
-1.00401e-06
3.03998e-07
1.37476e-06
-3.308e-07
3.25234e-07
0.0011366
-1.46097e-08
5.48653e-09
1.51818e-07
0.000252314
1.11419e-08
1.08818e-06
-8.97358e-07
-1.0858e-06
8.95993e-07
0.00113929
1.4375e-08
9.89055e-05
1.32253e-06
0.000274012
-2.74443e-07
-2.79302e-07
-8.5325e-09
4.33765e-08
0.000284038
-1.65046e-08
1.44088e-08
-1.14782e-08
4.08962e-08
0.000284147
4.43111e-09
9.89052e-05
-5.97353e-08
0.000236142
-0.000236102
1.92001e-08
9.14788e-10
-3.89186e-08
0.000196774
-1.00483e-09
-0.000196741
0.000259763
-0.000259587
-2.38106e-07
1.62494e-10
1.21821e-08
0.00113626
1.36632e-06
-5.05493e-09
-9.98208e-07
3.04046e-07
9.99251e-07
-3.14847e-07
-1.35781e-06
3.22387e-07
-3.27944e-07
0.001139
5.90266e-09
-1.07728e-06
8.90182e-07
-8.88897e-07
1.08217e-06
0.000252347
1.86739e-08
-1.3458e-08
-0.000252248
-1.43584e-07
6.03646e-08
3.03055e-10
3.12576e-10
-1.84241e-08
0.000236139
4.12252e-08
-5.72278e-09
0.000196797
1.90936e-09
6.8534e-10
2.32681e-07
0.000259618
1.13874e-08
-5.60933e-09
1.3284e-06
-3.19274e-07
3.19663e-07
9.997e-07
-3.09366e-07
3.06924e-07
-9.95376e-07
0.00113724
7.99599e-09
1.516e-07
0.000252315
5.49406e-09
5.75721e-09
1.08492e-06
-8.9168e-07
-1.08021e-06
8.93007e-07
0.00113902
5.78583e-08
-1.85069e-08
5.84618e-10
0.000236102
4.34635e-08
-4.49597e-09
-5.68596e-09
0.000196741
2.32733e-07
5.15422e-10
0.00025959
1.21097e-08
-1.35776e-06
-5.17171e-09
9.99301e-07
-3.14841e-07
-9.98248e-07
3.04022e-07
1.36634e-06
-3.27919e-07
3.22368e-07
0.00113626
5.76381e-09
1.0822e-06
-8.88863e-07
-1.07726e-06
8.90177e-07
0.001139
-1.70683e-08
8.00406e-09
1.51659e-07
0.000252248
5.96678e-08
0.000259775
-0.000259603
-2.32897e-07
1.93518e-10
1.21466e-08
0.00113605
-5.09743e-09
-1.35214e-06
3.16691e-07
-3.22138e-07
-9.95405e-07
3.01166e-07
-3.12023e-07
9.9645e-07
0.00113899
5.80776e-09
-1.07723e-06
8.95853e-07
-8.94468e-07
1.08216e-06
3.66946e-08
0.000252395
-1.10647e-08
-0.000252296
-1.43611e-07
0.000236148
-0.000236111
2.12393e-08
9.60261e-10
0.000196785
6.80464e-09
-1.04694e-09
-0.000196754
-5.76769e-08
1.77299e-09
1.20293e-09
2.32617e-07
0.000259629
1.17014e-08
-5.76365e-09
1.33124e-06
-3.22151e-07
3.16954e-07
9.96752e-07
-3.1199e-07
-9.95284e-07
3.01384e-07
0.00113698
-4.33619e-08
5.44779e-09
1.54e-07
0.000252362
3.52563e-09
5.7146e-09
1.08497e-06
-8.94417e-07
-1.08015e-06
8.95861e-07
0.00113906
2.60921e-10
6.10809e-10
-2.04427e-08
0.000236148
-5.69201e-09
0.000196807
-5.77642e-08
2.30083e-07
4.75634e-10
0.000259603
1.20791e-08
-1.35209e-06
-5.21496e-09
9.96447e-07
-3.12016e-07
-9.95381e-07
3.01149e-07
1.36067e-06
-3.22121e-07
3.16661e-07
0.00113605
5.64931e-09
1.08217e-06
-8.94434e-07
-1.0772e-06
8.95846e-07
0.001139
-4.13005e-08
-1.71888e-08
5.59606e-09
1.51742e-07
0.000252296
-2.05456e-08
5.14877e-10
0.000236111
-4.53419e-09
-5.62742e-09
0.000196754
0.000276097
-0.000273973
2.80467e-07
2.87922e-07
0.000284037
9.29928e-09
-0.000284002
-3.98557e-08
1.18665e-08
0.000284137
9.40788e-09
-0.000284102
-3.99126e-08
9.89121e-05
-6.85363e-09
-9.88934e-05
1.6588e-08
9.8883e-05
1.31685e-06
0.000273973
-2.71766e-07
-2.79286e-07
-8.53496e-09
4.3339e-08
0.000284002
-1.44326e-08
1.46211e-08
-8.44001e-09
4.33935e-08
0.000284102
4.49038e-09
9.88932e-05
6.22357e-08
0.000259794
-0.00025962
-2.38051e-07
6.24044e-10
1.15918e-08
0.00113716
-5.62674e-09
-1.31706e-06
3.14119e-07
-3.19308e-07
-9.95368e-07
3.04247e-07
-3.1479e-07
9.9685e-07
0.0011389
5.69538e-09
-1.07456e-06
8.90151e-07
-8.88921e-07
1.07928e-06
3.67648e-08
0.000252412
-1.09956e-08
-0.00025231
-1.46174e-07
-1.12194e-10
0.000236142
-0.000236102
6.32107e-10
1.91745e-08
0.000196788
-1.07044e-09
-0.000196757
0.000236179
-0.000236137
9.57708e-10
1.918e-08
0.000196826
6.80271e-09
-9.53809e-10
-0.000196795
1.37597e-09
-5.78963e-08
2.353e-07
9.54484e-10
0.000259585
1.15197e-08
-5.84556e-09
1.32559e-06
-3.19223e-07
3.14084e-07
9.96483e-07
-3.14652e-07
-9.95052e-07
3.04156e-07
0.00113662
3.47367e-09
5.56361e-09
1.08197e-06
-8.88734e-07
-1.07432e-06
8.92896e-07
0.00113876
-4.12803e-08
5.60672e-09
1.51658e-07
0.000252304
-6.04333e-08
2.3536e-07
-1.06746e-10
0.00025962
1.15297e-08
-1.31702e-06
-5.78939e-09
9.96853e-07
-3.14777e-07
-9.95336e-07
3.04235e-07
1.32569e-06
-3.19297e-07
3.14085e-07
0.00113716
5.54835e-09
1.07929e-06
-8.88894e-07
-1.07452e-06
8.90141e-07
0.0011389
-4.12877e-08
-1.71674e-08
5.57909e-09
1.54109e-07
0.000252311
1.59601e-10
6.50593e-10
-1.85532e-08
0.000236102
-5.65423e-09
0.000196757
4.54825e-10
-1.85577e-08
0.000236137
-4.53001e-09
-5.5737e-09
0.000196795
9.89113e-05
-9.88926e-05
9.89153e-05
-9.88966e-05
0.000273987
-2.74149e-07
-2.79549e-07
-1.44168e-08
-8.56745e-09
4.34495e-08
0.000284097
-1.44128e-08
-9.04078e-09
4.10715e-08
0.000284042
9.88924e-05
9.88964e-05
4.4685e-09
1.6525e-08
-7.67878e-09
-7.74707e-09
0.000218158
1.50497e-08
1.71677e-08
-8.17253e-05
-7.22245e-09
-6.86349e-09
8.17394e-05
-8.17139e-05
-7.15949e-09
-6.95601e-09
8.1728e-05
6.44647e-09
6.41235e-09
-1.44024e-08
-1.67091e-08
0.000218175
2.91944e-08
-2.40092e-08
0.000227684
5.23808e-08
-0.000186241
-2.35936e-08
0.000186267
4.3336e-08
-8.51742e-09
-1.43534e-08
1.71042e-08
-0.000258426
2.56387e-08
0.000258484
-8.87712e-08
-3.46461e-08
8.81057e-08
4.21114e-08
0.000227726
-5.47085e-08
2.91035e-08
-2.20707e-08
0.000227619
5.26624e-08
-0.000186196
-2.16203e-08
0.000186221
4.09688e-08
-8.98438e-09
-1.43623e-08
1.70746e-08
-0.000258325
2.5791e-08
0.00025839
-9.38472e-08
-3.47567e-08
9.30394e-08
4.2068e-08
0.000227661
-5.49307e-08
-1.41881e-08
-6.8399e-09
9.89181e-05
-1.17471e-08
-6.83826e-09
9.89183e-05
-0.000218159
7.18658e-09
9.10062e-09
-1.20632e-08
-1.90174e-08
0.000218174
7.70914e-09
8.17296e-05
6.49531e-09
7.71214e-09
8.17122e-05
6.27972e-09
1.74115e-08
1.71565e-08
-5.1864e-09
8.1742e-05
-8.59675e-09
8.17299e-05
-0.000227682
2.13369e-08
-2.31026e-08
-5.2364e-08
0.000227724
2.4406e-08
0.000186242
-3.18785e-08
0.000258424
9.07539e-08
4.48178e-08
9.71165e-09
-3.49402e-08
-1.62291e-08
0.000284123
5.26345e-08
0.000186268
-8.60962e-08
-3.19634e-08
0.000258484
-0.000227619
2.60575e-08
-3.08301e-08
-5.73846e-08
0.000227662
2.19603e-08
0.000186192
-2.88852e-08
0.000258332
8.79036e-08
4.46451e-08
1.20707e-08
-4.24482e-08
-1.87656e-08
0.000284088
5.26822e-08
0.000186222
-9.92514e-08
-3.99132e-08
0.000258398
-0.000145095
5.66036e-10
-1.93037e-08
6.19248e-10
0.000145113
1.43965e-09
0.000173322
1.39096e-11
-2.02266e-08
0.000229042
8.08194e-10
5.6588e-08
2.12364e-08
8.60426e-10
7.51077e-11
-5.70619e-08
0.000236148
1.26713e-09
1.6848e-11
0.000173344
3.08105e-09
-6.01961e-08
0.000229081
-7.99666e-05
-1.70086e-08
7.99843e-05
-2.15637e-08
0.000268299
5.24565e-08
-1.11411e-09
-3.88533e-08
0.000196798
-5.34078e-08
0.000268337
-0.000145169
5.35257e-10
-1.94376e-08
6.7496e-10
0.000145187
1.44033e-09
0.000173359
-1.81965e-08
0.00022913
7.97623e-10
5.67025e-08
2.1247e-08
9.07002e-10
-5.70615e-08
0.000236186
1.47773e-09
0.00017338
3.1243e-09
-6.03063e-08
0.000229168
-8.00116e-05
-1.71721e-08
8.00295e-05
-1.93842e-08
0.000268411
5.26206e-08
-1.13062e-09
6.85018e-09
-3.66632e-08
0.000196845
-5.35059e-08
0.000268449
-1.18978e-08
9.89242e-05
-0.000218168
7.21792e-09
7.17898e-09
-1.65843e-08
-1.45104e-08
0.000218184
7.67942e-09
8.17166e-05
6.46248e-09
7.75365e-09
8.17286e-05
6.33923e-09
1.72825e-08
1.49771e-08
-6.86057e-09
8.17307e-05
-6.85264e-09
8.17426e-05
-2.56116e-08
-0.000227623
2.35412e-08
-5.24798e-08
0.000227661
2.40405e-08
0.000186194
0.000258318
-2.92375e-08
4.2183e-08
9.0668e-08
-3.98563e-08
9.29199e-09
-1.63055e-08
0.000284073
-3.45709e-08
-9.13372e-08
0.000258378
5.01802e-08
0.00018622
-0.000227697
2.17975e-08
-2.82546e-08
-5.71418e-08
0.000227746
2.2286e-08
0.000186247
-3.15525e-08
0.000258473
9.3171e-08
4.20516e-08
1.23677e-08
-3.74651e-08
1.40216e-08
-1.61392e-08
0.000284175
5.49236e-08
0.000186275
-9.39794e-08
-3.46827e-08
0.000258536
-6.86057e-09
9.89261e-05
-1.46795e-09
2.02824e-08
0.000145091
1.30209e-09
-1.83604e-08
2.99484e-10
5.76669e-08
-0.000173321
-5.23174e-10
0.00017334
-0.000229032
2.1381e-08
3.05719e-09
0.000229068
-6.02701e-08
8.13038e-10
5.65497e-08
8.45094e-10
0.000145111
2.15004e-08
7.99648e-05
-0.000268291
1.92359e-08
0.000268327
-5.33628e-08
-5.66582e-09
4.33683e-08
5.24893e-08
7.99848e-05
-0.000145166
-1.93838e-08
6.08445e-10
5.49631e-10
0.000145184
-1.82739e-08
0.000229126
6.75548e-10
5.93569e-08
1.37456e-09
0.000173356
3.86055e-11
1.01648e-09
1.91852e-08
6.11523e-11
-6.22033e-08
0.000236181
1.34367e-09
2.92634e-09
-6.26856e-08
0.000229167
6.22639e-11
0.000173375
-8.00132e-05
-1.72999e-08
8.00311e-05
-1.92466e-08
0.000268416
5.2533e-08
-1.08837e-09
-3.6622e-08
0.000196828
-5.35855e-08
0.000268454
-0.000145091
4.69317e-10
-2.13261e-08
8.7305e-10
0.000145111
1.51226e-09
0.00017332
-2.03453e-08
0.000229032
8.27152e-10
5.66765e-08
1.91034e-08
1.15956e-09
-5.96212e-08
0.000236141
1.3474e-09
0.00017334
3.06435e-09
-6.0163e-08
0.000229069
-7.99646e-05
-1.92022e-08
7.99847e-05
-2.15648e-08
0.000268291
5.25636e-08
-1.02946e-09
6.81048e-09
-3.88569e-08
0.000196774
-5.33242e-08
0.000268327
-1.45183e-09
1.82879e-08
0.000145096
1.45975e-09
-2.03971e-08
2.40776e-10
5.75866e-08
-0.00017332
-5.53235e-10
0.000173342
-0.000229039
1.93628e-08
3.11456e-09
0.00022908
-6.28365e-08
7.40083e-10
5.91647e-08
6.55207e-10
0.000145115
1.93863e-08
7.99702e-05
-0.000268302
1.71517e-08
0.000268343
-5.59359e-08
-5.61903e-09
-4.49687e-09
4.11993e-08
5.50225e-08
7.9988e-05
-0.000145169
-1.9392e-08
5.50236e-10
6.44784e-10
0.000145187
-1.82279e-08
0.000229134
7.28791e-10
5.92516e-08
1.43974e-09
0.000173356
1.01297e-11
8.42735e-10
2.12121e-08
6.94969e-11
-5.96134e-08
0.000236186
1.43996e-09
3.09213e-09
-6.27471e-08
0.000229175
2.26045e-11
0.000173377
-8.00154e-05
-1.71853e-08
8.00333e-05
-1.93413e-08
0.00026843
5.50061e-08
-1.08993e-09
-3.88985e-08
0.00019684
-5.59848e-08
0.000268471
-0.000145096
4.98543e-10
-1.93122e-08
6.82263e-10
0.000145114
1.48948e-09
0.00017332
-1.83565e-08
0.000229039
7.47238e-10
5.92817e-08
2.11472e-08
1.19219e-09
-5.95581e-08
0.000236148
1.49907e-09
0.000173342
3.10909e-09
-6.27356e-08
0.00022908
-7.99701e-05
-1.71162e-08
7.99879e-05
-1.94488e-08
0.000268302
5.50966e-08
-1.06258e-09
6.80194e-09
-3.6627e-08
0.000196785
-5.58859e-08
0.000268343
-7.68695e-09
-7.75341e-09
0.000218151
1.50966e-08
1.70975e-08
-8.17085e-05
-7.20732e-09
-6.88674e-09
8.17226e-05
-8.17269e-05
-7.16624e-09
-6.93706e-09
8.1741e-05
6.42029e-09
6.36222e-09
-1.44785e-08
-1.66577e-08
0.000218168
-2.39977e-08
2.91798e-08
0.000227602
5.48369e-08
-0.000186184
-2.35861e-08
0.00018621
-8.48397e-09
4.32267e-08
1.69994e-08
-0.000258281
2.56657e-08
0.000258347
-3.72528e-08
-9.38742e-08
4.46962e-08
9.31468e-08
0.000227647
-5.72092e-08
2.90428e-08
-2.40597e-08
0.000227682
5.01997e-08
-0.000186243
-2.35556e-08
0.000186269
4.32822e-08
-8.37911e-09
-1.43838e-08
1.45451e-08
-0.000258435
2.57899e-08
0.000258493
-3.21469e-08
-9.13574e-08
3.94061e-08
9.05676e-08
0.00022772
-5.2391e-08
4.4634e-09
-1.40452e-08
9.89039e-05
-0.000218151
7.17522e-09
7.13845e-09
-1.44126e-08
-1.65892e-08
0.000218168
7.72739e-09
8.17084e-05
6.46026e-09
7.79762e-09
8.17268e-05
6.40153e-09
1.52192e-08
1.72202e-08
-6.85958e-09
8.17225e-05
-6.90436e-09
8.17408e-05
-2.56191e-08
-0.000227602
2.35209e-08
-5.71318e-08
0.000227647
2.41167e-08
0.000186184
0.000258282
-2.92908e-08
4.47523e-08
9.31997e-08
-3.98159e-08
9.27848e-09
-1.86513e-08
0.000284037
-3.7219e-08
-9.38408e-08
0.000258347
5.49701e-08
0.00018621
-0.000227682
2.34911e-08
-2.57348e-08
-5.23224e-08
0.00022772
2.41822e-08
0.000186243
-2.91629e-08
0.000258435
9.06061e-08
3.9482e-08
9.36693e-09
-3.98761e-08
1.18527e-08
-1.63501e-08
0.000284137
5.03301e-08
0.000186269
-9.13333e-08
-3.2103e-08
0.000258493
-6.84298e-09
9.89119e-05
1.82507e-08
-1.2679e-09
0.000145096
1.45331e-09
1.80671e-10
-1.8418e-08
7.78187e-12
5.77466e-08
-0.000229035
1.94076e-08
3.11981e-09
0.000229076
-6.27998e-08
-0.000173321
-5.53718e-10
7.78494e-13
0.000173341
7.50957e-10
5.91991e-08
1.53485e-12
6.52951e-10
0.000145114
1.93761e-08
7.99703e-05
-0.0002683
1.71708e-08
0.000268341
-5.59723e-08
-5.63049e-09
4.11774e-08
5.50102e-08
7.99881e-05
1.83455e-08
-1.44551e-09
0.000145169
1.40879e-09
4.54524e-10
-1.84199e-08
6.02803e-08
-0.000229124
1.93549e-08
3.00878e-09
0.000229166
-6.27882e-08
-0.000173356
-5.26494e-10
0.000173376
7.2158e-10
5.92679e-08
6.26012e-10
0.000145187
1.93491e-08
8.00147e-05
-0.000268412
1.72023e-08
0.00026845
-5.35466e-08
-5.57173e-09
-4.48599e-09
4.11902e-08
5.25684e-08
8.00325e-05
-0.000145096
-1.93408e-08
3.84315e-10
6.64488e-10
0.000145114
-1.83394e-08
0.000229035
7.46352e-10
5.93509e-08
1.43761e-09
0.000173321
1.20814e-11
1.0717e-09
1.90968e-08
5.17482e-11
-5.96155e-08
0.000236141
1.47943e-09
3.08788e-09
-6.27102e-08
0.000229076
1.52195e-11
0.00017334
-7.99701e-05
-1.71439e-08
7.9988e-05
-1.94304e-08
0.0002683
5.50771e-08
-1.0922e-09
-3.66749e-08
0.000196788
-5.59381e-08
0.000268341
-0.000145169
-1.93122e-08
5.08384e-10
6.4363e-10
0.000145187
-1.8408e-08
0.000229124
7.14258e-10
5.93619e-08
1.46517e-09
0.000173356
9.38192e-10
1.91039e-08
-6.21675e-08
0.000236179
1.44146e-09
2.99585e-09
-6.27162e-08
0.000229166
0.000173376
-8.00146e-05
-1.71684e-08
8.00324e-05
-1.94092e-08
0.000268412
5.26356e-08
-9.73076e-10
6.7851e-09
-3.67056e-08
0.000196826
-5.35118e-08
0.000268451
-0.000218158
7.18457e-09
7.1243e-09
-1.43315e-08
-1.66364e-08
0.000218174
7.72691e-09
8.17252e-05
6.48026e-09
7.79329e-09
8.17138e-05
6.44926e-09
1.51769e-08
1.73033e-08
-6.8459e-09
8.17392e-05
-6.93632e-09
8.17279e-05
-0.000227684
-2.5574e-08
2.35174e-08
-5.46228e-08
0.000227726
2.41332e-08
0.00018624
-2.93196e-08
0.000258426
4.21843e-08
8.81622e-08
-3.98857e-08
9.28311e-09
1.18764e-08
-1.87564e-08
0.000284134
5.25223e-08
-3.45855e-08
-8.87319e-08
0.000258484
0.000186266
-0.000227619
-2.57221e-08
2.15538e-08
-5.48556e-08
0.000227661
2.21915e-08
0.000186196
-2.92436e-08
0.000258325
4.21419e-08
9.30915e-08
-3.75777e-08
9.84952e-09
1.18933e-08
-1.87493e-08
0.000284077
5.27991e-08
-3.47087e-08
-9.38168e-08
0.000258391
0.00018622
9.89111e-05
9.89151e-05
-5.47511e-09
-5.39801e-09
0.00114717
1.99478e-10
0.00115424
8.39749e-11
-5.9719e-10
0.0011547
-1.48292e-10
0.00116332
-5.42145e-09
-5.44303e-09
0.00114739
2.58189e-11
0.00115432
2.10295e-11
0.00115474
0.00116336
-5.58551e-09
-6.0378e-10
0.00114756
6.38202e-09
7.985e-10
0.00115461
7.83322e-11
3.6798e-09
0.00115505
1.30661e-10
1.88911e-09
0.00116392
-5.33959e-09
-5.37659e-09
0.00114758
1.29787e-10
0.00115465
3.74085e-11
8.49964e-10
0.00115512
8.61078e-10
0.00116395
-5.49099e-09
-5.41643e-09
0.00114717
1.76287e-10
0.00115424
4.35376e-11
5.22019e-10
0.0011547
6.65474e-11
0.00116332
-5.47708e-09
-5.46812e-09
0.00114739
2.91164e-11
0.00115432
2.51425e-11
0.00115474
0.00116336
3.47936e-09
-2.51879e-07
0.000272963
-1.54836e-08
2.35266e-07
-5.39481e-10
-1.4485e-11
-0.000272907
-1.21993e-09
-4.05225e-09
0.000273564
-0.00025834
-2.58362e-07
3.73176e-09
0.000258531
1.24515e-09
-2.96818e-09
9.7105e-09
0.000273773
-1.61728e-08
-2.36666e-07
0.000272156
-0.000258735
-2.39831e-07
0.000258912
1.5158e-07
5.54092e-09
-0.000268481
-1.16497e-08
0.00026862
0.000272911
1.49644e-07
1.49773e-07
0.000250248
-2.74162e-07
-2.79571e-07
-0.000268108
1.51955e-07
0.000268466
-0.000268546
1.52244e-07
0.000268902
0.000250442
-0.000250255
-1.49201e-07
-1.54972e-07
0.00025045
2.80444e-07
2.88007e-07
0.000276119
-1.49671e-07
0.000268113
-1.47136e-07
0.000268554
0.000268478
0.000268907
-0.000272976
2.58382e-07
-3.3278e-10
1.67435e-09
0.000273801
2.51911e-07
0.00025835
-3.54045e-10
5.52006e-10
0.000272923
5.07404e-09
6.47116e-10
-2.35499e-07
4.54871e-11
0.000259779
-4.67342e-09
3.76468e-09
0.000258545
-1.91723e-09
0.000273585
8.92683e-09
-0.000272158
2.39735e-07
0.000272907
2.3939e-07
0.000258734
0.000268471
1.34334e-08
-1.40908e-07
-1.09721e-08
0.000252401
0.000268605
0.000258913
-0.000273024
2.55943e-07
4.15497e-10
-9.8849e-10
0.000273857
2.4937e-07
0.000258418
-3.79524e-10
-2.32717e-10
0.000272952
6.81035e-10
-2.32904e-07
0.000259808
-1.94186e-09
3.85189e-09
0.000258611
0.000273613
-0.000272199
2.39867e-07
8.81447e-09
0.000272952
2.36925e-07
0.000258793
1.35239e-08
0.000268484
-1.1101e-08
-1.43586e-07
0.000252416
0.000258972
0.000268619
-1.5215e-07
-0.000250269
-1.5209e-07
0.000250464
2.83134e-07
2.87966e-07
0.000276147
0.000268534
-1.49865e-07
-1.49595e-07
0.000268169
0.000268899
0.000268528
1.79431e-10
-2.51942e-07
0.000272961
-4.59823e-09
2.32648e-07
2.20873e-12
-0.000272922
-1.7482e-09
0.000273569
-0.000258326
-2.58367e-07
3.77688e-09
0.000258521
-3.71969e-10
1.74192e-09
0.000273781
-2.36734e-07
0.000272128
-1.6138e-08
-0.000258707
-2.39657e-07
0.000258883
7.95089e-09
1.51587e-07
-1.16145e-08
-0.000268421
0.000268556
0.000272878
-0.00027302
2.5575e-07
-3.35069e-09
1.50758e-08
0.000273837
2.46858e-07
0.000258419
-2.98073e-09
-1.34065e-09
0.000272935
7.39833e-09
1.5749e-09
-2.38088e-07
-4.0654e-10
0.000259793
-1.81824e-08
6.17289e-09
0.000258607
-4.49905e-09
0.000273591
1.40659e-08
-0.000272219
2.40061e-07
0.00027298
2.33962e-07
0.000258801
0.000268509
1.64135e-08
-1.48611e-07
-1.35038e-08
0.000252422
0.000268641
0.000258981
-0.000272955
1.00474e-09
2.55727e-07
-9.93057e-10
0.000273782
3.09625e-10
0.000272919
2.49387e-07
0.000258329
-4.03175e-10
-2.35413e-07
5.9104e-10
0.000259765
-1.82296e-09
0.000273571
3.74166e-09
0.000258521
-0.000272131
2.39634e-07
1.15868e-08
0.000272878
2.36747e-07
0.000258707
1.61307e-08
0.000268421
-1.33914e-08
-1.43525e-07
0.000252347
0.000258883
0.000268556
5.04289e-10
-2.49379e-07
0.000272965
-1.83012e-09
2.30009e-07
-1.61281e-12
-0.000272922
-1.73411e-09
0.00027358
-0.000258347
-2.55753e-07
3.84749e-09
0.000258537
-3.90188e-10
-9.6246e-10
0.000273791
-1.34563e-08
-2.36791e-07
0.000272146
-0.00025873
-2.39735e-07
0.000258907
1.51666e-07
5.52541e-09
-0.000268465
-8.92534e-09
0.000268596
0.000272892
-0.000273029
2.58319e-07
-1.99544e-09
1.24058e-08
0.000273845
2.51977e-07
0.000258429
-2.94959e-09
-5.22593e-10
0.000272938
6.5855e-09
8.6321e-10
-2.35505e-07
-2.99187e-10
0.000259804
-1.55194e-08
6.18903e-09
0.00025862
-3.82478e-09
0.0002736
-0.000272235
1.15586e-08
2.42379e-07
0.00027299
2.39256e-07
0.000258826
1.6222e-08
0.000268551
-1.46016e-07
-1.0935e-08
0.000252464
0.000268684
0.000259008
-0.000272965
9.93146e-10
2.55714e-07
-9.89632e-10
0.000273792
2.65048e-10
0.000272922
2.4939e-07
0.000258348
-4.30767e-10
-2.32816e-07
6.26633e-10
0.000259776
-1.86021e-09
0.000273583
3.80087e-09
0.000258537
-0.000272146
2.39708e-07
8.88944e-09
0.000272892
2.36816e-07
0.00025873
1.3475e-08
0.000268465
-1.09871e-08
-1.4356e-07
0.000252395
0.000258907
0.000268597
1.46999e-07
1.49897e-07
0.000250237
-2.79313e-07
-2.71785e-07
-0.000268499
1.52136e-07
0.000268856
-0.000268128
1.49524e-07
0.000268489
0.000250429
-1.52078e-07
-0.000250238
-1.49461e-07
0.00025043
2.80455e-07
2.8792e-07
0.000276097
0.000268499
-1.49949e-07
-1.47055e-07
0.000268128
0.000268856
0.000268489
2.98487e-09
-2.52057e-07
0.000273011
-1.54282e-08
2.35312e-07
-3.29559e-10
-0.000272937
8.86932e-10
0.000273584
-0.000258409
-2.58224e-07
6.21e-09
0.000258599
-2.97494e-09
1.25177e-08
0.000273821
-1.33912e-08
-2.39223e-07
0.000272207
-0.000258791
-2.42428e-07
0.000258975
1.5404e-07
5.50567e-09
-0.000268501
-8.9254e-09
0.000268633
0.000272965
-0.000272964
-1.97436e-09
2.58227e-07
1.24231e-08
0.000273777
-2.13359e-10
0.000272907
4.0245e-09
2.52014e-07
0.00025834
-4.87168e-10
-2.38004e-07
1.05611e-09
3.40349e-11
0.000259762
-1.27794e-08
-1.24406e-09
0.000273561
6.13989e-09
0.00025853
-0.000272156
1.16177e-08
2.39747e-07
0.000272914
2.36758e-07
0.000258735
1.62015e-08
0.000268481
-1.43674e-07
-1.09736e-08
0.000252406
0.000268621
0.000258914
-0.000273011
-1.4275e-09
2.58195e-07
1.25077e-08
0.000273821
-2.4704e-09
0.000272937
2.52061e-07
0.000258409
-3.02263e-09
-2.3799e-07
8.33338e-10
0.000259795
-1.54471e-08
0.000273586
6.16242e-09
0.000258599
-0.000272207
2.42411e-07
8.8919e-09
0.000272965
2.3924e-07
0.000258791
1.34055e-08
0.000268501
-1.09066e-08
-1.46121e-07
0.000252412
0.000258975
0.000268633
-0.000250248
-1.51885e-07
-1.52168e-07
0.000250443
2.82735e-07
2.88197e-07
0.000276102
-1.49705e-07
0.000268108
-1.49842e-07
0.000268546
0.000268467
0.000268902
1.43933e-08
4.44131e-09
9.8901e-05
-9.89199e-05
1.43565e-08
4.45636e-09
9.88996e-05
-9.89184e-05
1.35765e-06
1.31984e-06
0.000273992
-2.71625e-07
-2.79546e-07
-0.000276118
1.46457e-08
-8.98566e-09
4.11188e-08
0.000284097
-0.000284129
1.70373e-08
-8.99871e-09
4.10201e-08
0.000284051
-0.000284085
5.39476e-11
5.77581e-08
-2.05081e-08
6.73791e-10
0.000236114
-0.000236152
4.1201e-08
-5.71553e-09
0.000196773
-0.000196804
5.78147e-08
-2.05448e-08
3.00211e-10
0.000236152
-0.000236189
1.34007e-09
1.53325e-09
2.35314e-07
0.000259602
-0.000259782
1.19119e-08
-5.04055e-09
1.36618e-06
-3.25044e-07
3.19419e-07
9.99032e-07
-3.09295e-07
3.01002e-07
-9.98278e-07
-0.00113614
5.55978e-09
1.51759e-07
0.000252306
-0.000252408
2.39013e-09
5.27972e-09
1.08779e-06
-8.97241e-07
-1.08287e-06
8.98616e-07
-0.00113913
4.31392e-10
2.35391e-07
0.000259633
-0.00025981
5.54776e-10
1.08803e-06
-8.97408e-07
-1.08306e-06
8.98676e-07
-0.00113928
6.03858e-08
1.76991e-10
3.59737e-10
-1.84952e-08
0.00023614
-0.000236183
4.12151e-08
-5.74502e-09
0.000196798
-0.000196829
1.75241e-09
9.41545e-10
2.35355e-07
0.000259618
-0.000259796
6.05272e-09
-5.50701e-09
1.32849e-06
-3.22177e-07
3.16989e-07
9.99522e-07
-3.14895e-07
3.04116e-07
-1.00093e-06
-0.00113724
7.97339e-09
1.51701e-07
0.000252316
-0.000252417
-1.63022e-10
1.08153e-08
1.08499e-06
-8.91522e-07
-1.08287e-06
8.93086e-07
-0.00113903
5.78665e-08
-1.84809e-08
4.2952e-10
0.000236103
-0.000236142
4.34301e-08
-4.51306e-09
-5.69126e-09
0.000196741
-0.000196775
2.3287e-07
2.48471e-10
0.00025959
-0.000259763
1.72821e-08
-1.35764e-06
-5.18148e-09
9.9923e-07
-3.1488e-07
-9.98295e-07
3.03946e-07
1.36641e-06
-3.2787e-07
3.22403e-07
-0.00113627
1.0836e-08
1.08223e-06
-8.91712e-07
-1.08011e-06
8.90136e-07
-0.00113899
-1.70374e-08
8.00597e-09
1.51703e-07
0.000252248
-0.000252347
1.64805e-08
9.88835e-05
-9.89045e-05
1.31688e-06
0.000273973
-2.74325e-07
-2.79292e-07
-0.000276094
-8.52715e-09
4.32644e-08
0.000284003
-0.000284038
-1.4394e-08
1.45746e-08
-1.10421e-08
4.33956e-08
0.000284103
-0.000284136
4.46997e-09
9.88937e-05
-9.89125e-05
1.0776e-09
-6.02795e-08
2.32712e-07
9.54273e-10
0.000259588
-0.000259762
1.15086e-08
-5.07899e-09
1.3255e-06
-3.19254e-07
3.14007e-07
9.96279e-07
-3.14718e-07
-9.95232e-07
3.03996e-07
-0.00113661
-1.49451e-09
5.04434e-09
1.07912e-06
-8.88697e-07
-1.07428e-06
8.90077e-07
-0.00113876
-4.12209e-08
5.56622e-09
1.54052e-07
0.000252301
-0.000252405
-5.78661e-08
2.30184e-07
-3.2839e-10
0.000259621
-0.000259792
5.23569e-09
1.07934e-06
-8.88812e-07
-1.07446e-06
8.90195e-07
-0.00113889
1.101e-11
3.65095e-10
-2.05406e-08
0.000236102
-0.000236142
-5.6537e-09
0.000196758
-0.000196789
3.43891e-10
-1.84873e-08
0.000236138
-0.000236178
-1.19011e-08
-6.85379e-09
-1.19098e-08
-6.80896e-09
-0.000218157
7.26454e-09
7.04074e-09
-1.6649e-08
-1.67714e-08
7.67923e-09
8.17245e-05
6.49298e-09
-8.17387e-05
7.88412e-09
8.17128e-05
6.45799e-09
-8.17271e-05
1.73787e-08
1.74155e-08
-0.000218176
-6.89112e-09
-6.97026e-09
-0.000227682
2.16052e-08
-2.57257e-08
-5.72842e-08
2.22021e-08
0.000186242
-0.000186266
-2.9145e-08
0.000258424
9.0777e-08
3.95751e-08
-0.000258484
9.85787e-09
-3.75284e-08
-1.63163e-08
5.5157e-08
-0.000227727
-9.39058e-08
-3.1972e-08
-0.000227618
2.15928e-08
-2.57054e-08
-5.73757e-08
2.21786e-08
0.000186193
-0.000186218
-2.92912e-08
0.000258327
9.30476e-08
4.48062e-08
-0.000258395
9.9058e-09
-3.76065e-08
-1.88495e-08
5.51293e-08
-0.000227663
-9.3883e-08
-3.73005e-08
-0.000145095
5.19231e-10
-2.13208e-08
8.25221e-10
1.48928e-09
0.000173323
-4.01682e-11
-0.000173345
-2.02989e-08
0.000229042
7.60016e-10
5.67291e-08
-0.000229079
2.11606e-08
8.5395e-10
-4.7085e-11
-5.95433e-08
1.30385e-09
-0.000145116
-5.03756e-11
3.08239e-09
-6.01121e-08
-7.99671e-05
-1.92645e-08
-2.14631e-08
0.0002683
5.25099e-08
-0.000268336
-6.53538e-10
-3.89932e-08
-7.99873e-05
-5.57847e-08
-0.000145169
6.40366e-10
-1.93494e-08
1.37897e-09
0.000173359
-0.000173381
-1.83365e-08
0.00022913
5.9389e-08
-0.000229171
2.11696e-08
7.76892e-10
-5.9521e-08
-0.000145187
-6.2705e-08
-0.000145166
-1.93922e-08
4.05714e-10
6.27985e-10
-1.83276e-08
0.000229127
7.41242e-10
5.93088e-08
-0.000229168
1.40876e-09
0.000173356
1.32491e-11
-0.000173376
1.30952e-09
1.9186e-08
-6.41099e-11
-6.22206e-08
1.41049e-09
-0.000145184
3.0519e-09
-6.27938e-08
7.40586e-12
-8.00134e-05
-1.72173e-08
-1.93314e-08
0.000268417
5.25596e-08
-0.000268455
-1.0783e-09
-3.6604e-08
-8.00313e-05
-5.34854e-08
-0.000145092
5.68058e-10
-2.13745e-08
7.81506e-10
1.41304e-09
0.000173321
-0.000173341
-2.03052e-08
0.000229032
7.44902e-10
5.6727e-08
-0.000229069
1.91539e-08
7.98482e-10
-5.96256e-08
1.23308e-09
-0.000145112
3.01841e-09
-6.0164e-08
-7.99651e-05
-1.9315e-08
-2.14063e-08
0.000268291
5.24653e-08
-0.000268327
-1.00174e-09
6.78541e-09
-3.88936e-08
-7.99853e-05
-5.33586e-08
-1.41597e-08
-0.000218152
7.17126e-09
7.11835e-09
-1.44048e-08
-1.66012e-08
7.73001e-09
8.17088e-05
6.44553e-09
-8.17229e-05
7.81696e-09
8.17271e-05
6.3507e-09
-8.17412e-05
1.52388e-08
1.72089e-08
-0.000218168
-6.87799e-09
-6.94589e-09
-2.55856e-08
-0.000227603
2.35884e-08
-5.72199e-08
2.40653e-08
0.000186185
-0.000186211
0.000258282
-2.93079e-08
4.48253e-08
9.31297e-08
-0.000258347
-3.98795e-08
9.27452e-09
-1.86614e-08
-3.71757e-08
-9.38858e-08
5.48849e-08
-0.000227648
-0.000227683
2.35797e-08
-2.57041e-08
-5.24383e-08
2.43448e-08
0.000186244
-0.000186273
-3.16535e-08
0.000258436
9.05544e-08
3.96006e-08
-0.000258491
9.35745e-09
-3.98858e-08
1.18781e-08
-1.63598e-08
5.02045e-08
-0.000227723
-9.13214e-08
-3.20298e-08
-6.8324e-09
-0.000145094
-2.13125e-08
5.23309e-10
5.8314e-10
-2.03483e-08
0.000229035
6.8357e-10
5.91925e-08
-0.000229074
1.41511e-09
0.000173318
2.35714e-11
-0.00017334
1.13065e-09
2.11696e-08
-4.77135e-11
-6.21125e-08
1.42754e-09
-0.000145114
2.99633e-09
-6.26224e-08
1.09779e-11
-7.99706e-05
-1.72033e-08
-1.92913e-08
0.0002683
5.25136e-08
-0.000268338
-1.02851e-09
-3.67286e-08
-7.99884e-05
-5.34714e-08
-0.000145166
-2.13376e-08
5.97232e-10
-2.03404e-08
0.000229125
5.9276e-08
-0.000229164
1.40562e-09
0.000173356
-0.000173375
7.44731e-10
1.9105e-08
-5.95869e-08
-0.000145186
-6.2611e-08
-5.56125e-09
-1.07489e-08
-0.00114756
-5.53969e-09
-1.96949e-09
-0.0011546
-3.6496e-10
-5.14337e-09
-0.00115504
-4.90726e-09
-5.07196e-09
-0.00116391
-5.01095e-10
-0.00115465
-3.02756e-09
-0.00116394
-4.78181e-10
-5.71149e-09
-0.00114718
-6.80015e-10
-0.00115423
-4.23017e-10
-1.02985e-08
-0.00115469
-1.01442e-08
-0.00116331
-3.60189e-10
-0.00115474
-0.00116336
-0.000250255
-1.51876e-07
-1.49719e-07
2.80184e-07
2.8809e-07
-1.49717e-07
0.000268113
-0.000268469
-1.4741e-07
0.00026855
-0.000268912
-0.000250442
-0.000272975
2.55738e-07
-6.70269e-10
1.6869e-09
2.49414e-07
0.000258355
-3.34051e-10
-0.000258546
1.3214e-09
0.000272923
4.74165e-09
-0.000273591
9.00875e-10
-2.37975e-07
-1.55414e-10
-4.646e-09
-0.000273802
3.84567e-09
-2.16816e-09
8.80993e-09
-0.000272152
2.37081e-07
2.343e-07
0.000258737
-0.000258914
0.000268473
1.36599e-08
-0.000268604
-1.43485e-07
-1.10572e-08
-0.000272907
-0.000273026
2.55818e-07
8.70333e-10
2.49477e-07
0.000258421
-0.00025861
6.14881e-11
0.000272952
-0.000273609
3.93247e-10
-2.37967e-07
-0.000273855
-0.000273022
2.58291e-07
-3.14775e-09
1.78654e-08
2.52086e-07
0.000258416
-2.96629e-09
-0.000258605
-9.36702e-10
0.000272935
7.04019e-09
-0.000273597
1.35186e-09
-2.35406e-07
-4.65466e-10
-1.79627e-08
-0.000273835
6.16472e-09
-4.72776e-09
8.84178e-09
-0.000272213
2.3984e-07
2.36593e-07
0.000258799
-0.000258978
0.000268504
1.61817e-08
-0.000268639
-1.43578e-07
-1.10038e-08
-0.000272979
-0.000272955
1.19405e-09
2.55701e-07
-9.96446e-10