/*--------------------------------*- C++ -*----------------------------------*\
| =========                 |                                                 |
| \\      /  F ield         | OpenFOAM: The Open Source CFD Toolbox           |
|  \\    /   O peration     | Version:  v1912                                 |
|   \\  /    A nd           | Website:  www.openfoam.com                      |
|    \\/     M anipulation  |                                                 |
\*---------------------------------------------------------------------------*/
FoamFile
{
    version     2.0;
    format      ascii;
    class       volVectorField;
    location    "100";
    object      U;
}
// * * * * * * * * * * * * * * * * * * * * * * * * * * * * * * * * * * * * * //

dimensions      [0 1 -1 0 0 0 0];


internalField   nonuniform List<vector> 
57566
(
(-4.03943e-06 3.01398e-06 0.0722449)
(1.60769e-07 2.25655e-05 0.102356)
(2.97161e-06 -1.59684e-06 0.107943)
(-5.98655e-07 -2.14219e-06 0.108654)
(-5.99853e-06 1.60884e-05 0.0957082)
(7.91687e-05 7.91964e-05 0.106639)
(4.8375e-06 5.56971e-06 0.0894586)
(5.57015e-06 4.8333e-06 0.0894563)
(2.56825e-06 4.58421e-06 0.0721763)
(4.63412e-06 2.62494e-06 0.0721777)
(7.24322e-05 7.24223e-05 0.1065)
(5.73521e-06 6.19945e-06 0.0893885)
(6.17426e-06 5.73475e-06 0.0893857)
(-1.32059e-07 9.66575e-06 0.0940757)
(2.20618e-07 9.67069e-06 0.0835643)
(1.24105e-07 9.6773e-06 0.0940758)
(-2.441e-07 9.74555e-06 0.0835658)
(-1.512e-07 2.24566e-05 0.102259)
(3.11197e-06 1.69102e-06 0.107943)
(4.48804e-06 1.83176e-05 0.0955947)
(-5.53642e-07 2.16396e-06 0.108654)
(1.52963e-07 2.2472e-05 0.102258)
(-3.07159e-06 1.68331e-06 0.107943)
(-4.52052e-06 1.83435e-05 0.0955942)
(5.89541e-07 2.15697e-06 0.108654)
(-2.64995e-06 4.66081e-06 0.0721789)
(-7.24308e-05 7.23846e-05 0.1065)
(-5.79188e-06 6.22674e-06 0.089387)
(-6.14171e-06 5.69999e-06 0.0893876)
(-4.55808e-06 2.55854e-06 0.0721758)
(-1.06863e-05 7.05032e-08 0.0941404)
(-8.56467e-06 2.1701e-06 0.0836364)
(-2.25859e-05 -1.39046e-07 0.102356)
(1.68043e-06 -3.05355e-06 0.107943)
(2.17492e-06 5.67632e-07 0.108654)
(-1.60287e-05 5.94334e-06 0.0957086)
(9.73996e-06 -1.02005e-07 0.0940758)
(9.7153e-06 2.27458e-07 0.0835654)
(2.24813e-05 -1.14277e-07 0.102257)
(1.60577e-06 2.96653e-06 0.107943)
(1.82948e-05 4.53408e-06 0.0955939)
(2.15986e-06 -6.15859e-07 0.108654)
(9.77e-06 1.84528e-07 0.0940757)
(9.67298e-06 -2.59804e-07 0.0835635)
(2.25212e-05 1.80777e-07 0.102258)
(1.66725e-06 -3.04153e-06 0.107943)
(2.1507e-06 5.65892e-07 0.108654)
(1.83358e-05 -4.5506e-06 0.0955931)
(2.25655e-05 -1.31562e-07 0.102356)
(-1.67426e-06 -3.03824e-06 0.107943)
(-2.17332e-06 5.61203e-07 0.108654)
(1.60574e-05 5.98435e-06 0.0957083)
(1.06518e-05 7.76584e-08 0.0941413)
(8.61828e-06 2.18856e-06 0.0836355)
(-2.246e-05 -1.23161e-07 0.102258)
(-1.5799e-06 2.98296e-06 0.107944)
(-1.82507e-05 4.49505e-06 0.0955947)
(-2.15379e-06 -5.89314e-07 0.108654)
(-9.67865e-06 -1.14101e-07 0.0940753)
(-9.66144e-06 2.24075e-07 0.0835646)
(-2.2513e-05 1.64882e-07 0.102258)
(-1.65973e-06 -3.02753e-06 0.107943)
(-2.14676e-06 5.59657e-07 0.108654)
(-1.83719e-05 -4.57069e-06 0.0955948)
(-9.72114e-06 1.63759e-07 0.0940751)
(-9.74806e-06 -2.84509e-07 0.0835654)
(-7.9179e-05 7.92182e-05 0.106639)
(-4.7777e-06 5.5452e-06 0.0894578)
(-5.60593e-06 4.83847e-06 0.0894584)
(-3.08408e-06 4.12713e-06 0.0722439)
(4.56744e-06 -2.57871e-06 0.0721748)
(7.23847e-05 -7.24515e-05 0.1065)
(6.21346e-06 -5.77034e-06 0.0893842)
(5.77369e-06 -6.25141e-06 0.0893884)
(2.63454e-06 -4.66675e-06 0.0721788)
(-1.54886e-07 2.25614e-05 0.102356)
(-2.95973e-06 -1.59504e-06 0.107943)
(5.87067e-07 -2.14824e-06 0.108654)
(5.98769e-06 1.61089e-05 0.0957081)
(-5.47447e-08 1.0661e-05 0.0941401)
(-2.19843e-06 8.61969e-06 0.0836358)
(8.06148e-08 1.06604e-05 0.0941406)
(2.17264e-06 8.61851e-06 0.0836354)
(-1.3396e-07 -2.2531e-05 0.102257)
(2.95938e-06 -1.58066e-06 0.107943)
(-5.98131e-07 -2.12442e-06 0.108654)
(4.55735e-06 -1.83598e-05 0.0955954)
(1.43004e-07 -2.25231e-05 0.102256)
(-2.95017e-06 -1.57745e-06 0.107943)
(5.86173e-07 -2.12441e-06 0.108654)
(-4.5609e-06 -1.83538e-05 0.095594)
(-1.20641e-07 -9.79662e-06 0.0940755)
(2.74215e-07 -9.74814e-06 0.0835658)
(1.55393e-07 -9.78887e-06 0.0940751)
(-2.92083e-07 -9.7506e-06 0.0835654)
(4.13578e-06 3.05266e-06 0.0722435)
(3.05619e-06 4.13794e-06 0.0722428)
(-7.242e-05 -7.24395e-05 0.1065)
(-6.24492e-06 -5.80811e-06 0.0893878)
(-5.80101e-06 -6.24975e-06 0.0893864)
(-4.66988e-06 -2.66272e-06 0.0721781)
(-2.65218e-06 -4.66377e-06 0.0721777)
(4.56191e-06 -2.57533e-06 0.0721749)
(-3.96756e-06 -3.99311e-06 0.0853246)
(2.0936e-06 2.76009e-06 0.0693679)
(2.79683e-06 2.07363e-06 0.0693618)
(-2.39924e-06 -2.62169e-06 0.0693133)
(-2.59584e-06 -2.4256e-06 0.0693075)
(4.00211e-06 3.97533e-06 0.0853776)
(-1.26741e-05 -6.19506e-06 0.0940405)
(4.45899e-06 2.88869e-06 0.0830273)
(-6.1963e-06 -5.7752e-06 0.0893879)
(2.00615e-05 1.04978e-05 0.0993101)
(-2.09709e-05 -1.26205e-05 0.0992227)
(-5.08468e-06 -2.66156e-06 0.0829697)
(1.29736e-05 5.65452e-06 0.094112)
(-6.17283e-06 -1.26826e-05 0.0940326)
(2.93148e-06 4.47154e-06 0.083022)
(-5.76189e-06 -6.20314e-06 0.0893864)
(1.05494e-05 2.00646e-05 0.0993065)
(-1.25845e-05 -2.09312e-05 0.0992187)
(-2.66442e-06 -5.13121e-06 0.0829658)
(5.7186e-06 1.29763e-05 0.094104)
(-3.00773e-06 -4.02717e-06 0.0722455)
(-4.10651e-06 -3.06619e-06 0.0722441)
(-3.95842e-06 -3.99249e-06 0.0853785)
(2.63608e-06 2.42456e-06 0.0693145)
(2.41176e-06 2.54703e-06 0.0693062)
(3.99691e-06 3.94389e-06 0.0853245)
(-2.75679e-06 -2.09182e-06 0.0693684)
(-2.07373e-06 -2.77574e-06 0.0693632)
(-5.6528e-06 -1.30522e-05 0.0941088)
(2.71104e-06 5.12137e-06 0.0829715)
(1.26592e-05 2.09691e-05 0.0992252)
(-5.50059e-06 -4.71577e-06 0.0894595)
(6.27363e-06 1.27264e-05 0.0940436)
(-2.89141e-06 -4.4448e-06 0.0830269)
(-1.04542e-05 -2.00275e-05 0.0993077)
(-1.2926e-05 -5.69961e-06 0.0941083)
(5.07142e-06 2.57178e-06 0.0829641)
(2.09313e-05 1.25553e-05 0.0992156)
(-4.83933e-06 -5.6061e-06 0.0894576)
(1.26776e-05 6.08543e-06 0.0940291)
(-4.41096e-06 -2.91235e-06 0.0830241)
(-2.00907e-05 -1.05776e-05 0.0993097)
(6.5434e-07 -4.95463e-06 0.0778729)
(-2.83068e-07 4.74746e-06 0.0796856)
(-3.98761e-07 9.39271e-06 0.0921909)
(-4.86414e-08 -1.0635e-05 0.0941416)
(-1.27242e-06 4.97291e-06 0.0778199)
(9.90256e-08 -4.59642e-06 0.0797316)
(-4.62708e-07 -1.05633e-05 0.0922625)
(2.76296e-07 -4.20536e-06 0.0690991)
(-7.46781e-07 8.02172e-06 0.0874856)
(-2.19664e-06 -8.5548e-06 0.0836366)
(-1.93558e-06 4.56098e-06 0.0690258)
(-1.53543e-06 -8.24309e-06 0.0875632)
(-6.379e-07 -5.00402e-06 0.0778735)
(2.86227e-07 4.75775e-06 0.0796865)
(3.7988e-07 9.4289e-06 0.0921917)
(6.691e-08 -1.06391e-05 0.0941414)
(1.27281e-06 5.0169e-06 0.0778228)
(-9.06942e-08 -4.59735e-06 0.0797322)
(4.74901e-07 -1.06063e-05 0.0922617)
(-2.50658e-07 -4.26122e-06 0.0690965)
(7.33687e-07 8.06945e-06 0.0874863)
(2.2086e-06 -8.59849e-06 0.0836354)
(1.91752e-06 4.61705e-06 0.0690268)
(1.55056e-06 -8.28218e-06 0.0875616)
(3.06756e-06 -4.13309e-06 0.0722439)
(3.97882e-06 -4.00257e-06 0.085378)
(-2.62108e-06 2.40173e-06 0.0693082)
(-2.42294e-06 2.58327e-06 0.0693134)
(-4.0045e-06 3.96678e-06 0.0853249)
(2.7651e-06 -2.09188e-06 0.0693628)
(2.0809e-06 -2.7739e-06 0.069368)
(5.64991e-06 -1.29495e-05 0.0941046)
(-2.66766e-06 5.10454e-06 0.0829657)
(-1.26452e-05 2.09786e-05 0.0992186)
(5.55957e-06 -4.81939e-06 0.0894571)
(1.04824e-05 -2.00548e-05 0.0993067)
(-6.21923e-06 1.26676e-05 0.0940328)
(2.88869e-06 -4.43727e-06 0.0830232)
(1.29781e-05 -5.71214e-06 0.0941128)
(-5.08986e-06 2.62135e-06 0.08297)
(-2.09435e-05 1.25727e-05 0.0992228)
(4.73819e-06 -5.50177e-06 0.0894601)
(-1.26998e-05 6.15857e-06 0.0940407)
(4.41321e-06 -2.88232e-06 0.0830279)
(2.00504e-05 -1.05352e-05 0.0993114)
(4.0235e-06 -3.01584e-06 0.0722454)
(4.96884e-06 1.28635e-06 0.0778201)
(9.68365e-06 1.52217e-07 0.0940758)
(-4.65309e-06 -9.879e-08 0.079731)
(-1.06045e-05 4.64656e-07 0.0922624)
(4.82818e-06 2.71044e-07 0.0796877)
(9.35841e-06 4.17489e-07 0.0921905)
(-4.92823e-06 -6.22481e-07 0.0778737)
(4.52765e-06 1.95407e-06 0.0690247)
(-8.24766e-06 1.49816e-06 0.0875633)
(9.64874e-06 -2.44883e-07 0.0835636)
(8.00735e-06 7.42216e-07 0.0874848)
(-4.1572e-06 -2.86886e-07 0.0690999)
(-4.99108e-06 6.99559e-07 0.0778729)
(9.4659e-06 -3.33491e-07 0.0921913)
(4.83882e-06 -2.80848e-07 0.0796878)
(-1.06551e-05 -2.36164e-08 0.0941405)
(5.0476e-06 -1.21711e-06 0.0778225)
(-1.05612e-05 -3.99163e-07 0.0922617)
(-4.65563e-06 1.03594e-07 0.0797309)
(-4.28525e-06 3.33872e-07 0.0690965)
(8.06679e-06 -6.92748e-07 0.0874861)
(-8.57727e-06 -2.21429e-06 0.0836361)
(4.59906e-06 -1.84115e-06 0.0690267)
(-8.26586e-06 -1.49813e-06 0.0875616)
(-4.91331e-06 -6.0129e-07 0.0778737)
(4.85136e-06 3.0004e-07 0.0796875)
(9.41896e-06 4.34527e-07 0.0921906)
(-1.06339e-05 1.00741e-07 0.0941403)
(4.9882e-06 1.31836e-06 0.07782)
(-4.63205e-06 -5.60819e-08 0.0797309)
(-1.0558e-05 4.71741e-07 0.0922625)
(-4.15289e-06 -2.71608e-07 0.0690998)
(8.05155e-06 7.38332e-07 0.0874849)
(-8.54846e-06 2.16653e-06 0.0836363)
(4.54084e-06 1.97704e-06 0.0690246)
(-8.21495e-06 1.50028e-06 0.0875634)
(-5.03672e-06 1.2725e-06 0.0778218)
(-9.64577e-06 1.35651e-07 0.0940752)
(4.59638e-06 -1.12271e-07 0.0797321)
(1.06357e-05 4.86623e-07 0.0922622)
(-4.7607e-06 2.70384e-07 0.0796864)
(-9.39757e-06 3.92622e-07 0.092191)
(4.97877e-06 -6.38906e-07 0.0778728)
(-4.62454e-06 1.90613e-06 0.069028)
(8.29268e-06 1.52341e-06 0.087563)
(-9.72229e-06 -2.6422e-07 0.0835655)
(-8.05017e-06 7.04735e-07 0.0874862)
(4.2528e-06 -2.616e-07 0.0690984)
(4.99529e-06 6.5606e-07 0.0778736)
(-9.43909e-06 -3.6655e-07 0.0921911)
(-4.77329e-06 -3.00286e-07 0.0796866)
(1.06275e-05 -3.99428e-08 0.0941414)
(-5.02765e-06 -1.25916e-06 0.0778225)
(1.05749e-05 -4.4707e-07 0.0922624)
(4.58424e-06 8.76387e-08 0.0797323)
(4.26479e-06 2.67996e-07 0.0690971)
(-8.05296e-06 -7.1546e-07 0.0874858)
(8.55013e-06 -2.19622e-06 0.0836369)
(-4.61291e-06 -1.8917e-06 0.0690265)
(8.269e-06 -1.52521e-06 0.087563)
(4.96424e-06 -6.14252e-07 0.0778727)
(-4.79017e-06 2.93368e-07 0.0796862)
(-9.45351e-06 4.04284e-07 0.092191)
(1.06071e-05 1.04799e-07 0.0941413)
(-5.05961e-06 1.30482e-06 0.0778216)
(4.57072e-06 -7.36809e-08 0.0797319)
(1.05924e-05 4.8832e-07 0.0922623)
(4.24768e-06 -2.49743e-07 0.0690982)
(-8.09275e-06 7.00653e-07 0.0874863)
(8.59504e-06 2.18281e-06 0.0836355)
(-4.63823e-06 1.92375e-06 0.0690279)
(8.25801e-06 1.52079e-06 0.0875631)
(3.96455e-06 -3.99617e-06 0.0853243)
(-2.08627e-06 2.77087e-06 0.0693617)
(-2.78465e-06 2.06865e-06 0.0693678)
(2.40731e-06 -2.61364e-06 0.0693068)
(2.59205e-06 -2.42757e-06 0.0693132)
(-4.00017e-06 3.98857e-06 0.0853775)
(1.2647e-05 -6.20908e-06 0.0940318)
(-4.44392e-06 2.8998e-06 0.0830225)
(6.16297e-06 -5.74073e-06 0.0893842)
(-2.00647e-05 1.05113e-05 0.0993072)
(5.09476e-06 -2.66153e-06 0.0829641)
(2.09267e-05 -1.26098e-05 0.0992178)
(-1.29714e-05 5.67898e-06 0.0941043)
(6.13609e-06 -1.26993e-05 0.0940402)
(-2.92084e-06 4.43127e-06 0.0830274)
(5.73992e-06 -6.20211e-06 0.0893885)
(-1.05558e-05 2.00682e-05 0.0993099)
(1.25717e-05 -2.09509e-05 0.0992224)
(2.61793e-06 -5.11344e-06 0.0829699)
(-5.70315e-06 1.29617e-05 0.0941119)
(2.62813e-06 -4.66494e-06 0.0721789)
(-4.03745e-06 3.01054e-06 0.0722448)
(-3.98031e-06 3.96873e-06 0.0853775)
(2.40371e-06 -2.61777e-06 0.0693067)
(2.59222e-06 -2.42519e-06 0.0693131)
(3.99624e-06 -4.03001e-06 0.0853243)
(-2.08645e-06 2.77164e-06 0.0693616)
(-2.78567e-06 2.07115e-06 0.0693677)
(-1.29381e-05 5.6499e-06 0.0941043)
(5.10877e-06 -2.6792e-06 0.082964)
(2.09876e-05 -1.26516e-05 0.0992178)
(-4.75652e-06 5.5336e-06 0.0894578)
(-2.00314e-05 1.04891e-05 0.0993073)
(1.27102e-05 -6.2671e-06 0.0940317)
(-4.43836e-06 2.8904e-06 0.0830225)
(-5.67187e-06 1.29317e-05 0.0941118)
(2.63772e-06 -5.12995e-06 0.0829699)
(1.26165e-05 -2.10105e-05 0.0992224)
(-5.58643e-06 4.81664e-06 0.0894584)
(6.19711e-06 -1.27623e-05 0.0940401)
(-2.90681e-06 4.42396e-06 0.0830273)
(-1.05302e-05 2.00374e-05 0.09931)
(-3.08109e-06 4.13244e-06 0.0722438)
(-1.26586e-06 -5.03848e-06 0.0778222)
(-1.26958e-07 -9.71382e-06 0.0940756)
(-4.55478e-07 1.05983e-05 0.0922619)
(8.52207e-08 4.65599e-06 0.0797314)
(-3.80308e-07 -9.43432e-06 0.0921909)
(-2.88324e-07 -4.84214e-06 0.0796884)
(6.53082e-07 5.00443e-06 0.0778728)
(-1.89877e-06 -4.62249e-06 0.0690285)
(-1.53202e-06 8.29244e-06 0.0875632)
(2.57159e-07 -9.72154e-06 0.0835659)
(-7.12733e-07 -8.05298e-06 0.0874865)
(2.62377e-07 4.26075e-06 0.0690988)
(1.26095e-06 -5.05086e-06 0.077823)
(1.53029e-07 -9.71156e-06 0.0940752)
(4.60457e-07 1.06126e-05 0.0922621)
(-7.75591e-08 4.65645e-06 0.0797315)
(3.78568e-07 -9.42865e-06 0.092191)
(2.93821e-07 -4.84415e-06 0.0796884)
(-6.47144e-07 4.9828e-06 0.0778736)
(1.86975e-06 -4.61663e-06 0.0690271)
(1.48581e-06 8.29883e-06 0.0875619)
(-2.68935e-07 -9.722e-06 0.0835656)
(6.79091e-07 -8.05375e-06 0.0874862)
(-2.91285e-07 4.25703e-06 0.0690968)
(6.45016e-07 5.00005e-06 0.0778727)
(-3.85083e-07 -9.49173e-06 0.0921908)
(-2.88691e-07 -4.8599e-06 0.0796882)
(-5.0297e-08 1.062e-05 0.0941401)
(-1.27402e-06 -5.04601e-06 0.0778221)
(-4.52661e-07 1.05586e-05 0.0922619)
(8.4085e-08 4.63916e-06 0.0797313)
(2.51197e-07 4.25826e-06 0.0690986)
(-7.13956e-07 -8.08977e-06 0.0874865)
(-2.19389e-06 8.60501e-06 0.0836358)
(-1.92256e-06 -4.63015e-06 0.0690283)
(-1.5321e-06 8.26636e-06 0.0875633)
(-6.33718e-07 4.97027e-06 0.0778735)
(3.84107e-07 -9.48046e-06 0.0921911)
(2.96767e-07 -4.86623e-06 0.0796882)
(7.94737e-08 1.0621e-05 0.0941406)
(1.28132e-06 -5.07273e-06 0.0778229)
(4.57685e-07 1.05736e-05 0.0922622)
(-7.04018e-08 4.63992e-06 0.0797314)
(-2.79277e-07 4.2521e-06 0.0690967)
(6.68685e-07 -8.09442e-06 0.0874863)
(2.16687e-06 8.60189e-06 0.0836353)
(1.89006e-06 -4.62996e-06 0.0690269)
(1.48438e-06 8.26769e-06 0.0875619)
(-4.65992e-06 -2.6504e-06 0.0721782)
(-2.64408e-06 -4.65919e-06 0.0721778)
(3.9841e-06 3.95769e-06 0.0853775)
(-2.39995e-06 -2.61753e-06 0.0693132)
(-2.5956e-06 -2.42475e-06 0.0693074)
(-3.99918e-06 -4.02489e-06 0.0853246)
(2.08992e-06 2.76772e-06 0.0693678)
(2.7995e-06 2.07135e-06 0.0693617)
(1.29375e-05 5.61828e-06 0.094112)
(-5.10093e-06 -2.67659e-06 0.0829696)
(-2.10347e-05 -1.26677e-05 0.0992227)
(4.81358e-06 5.55338e-06 0.0894586)
(-1.27384e-05 -6.25978e-06 0.0940404)
(2.00258e-05 1.04674e-05 0.0993102)
(4.44646e-06 2.88557e-06 0.0830272)
(5.68234e-06 1.29444e-05 0.094104)
(-2.67786e-06 -5.14612e-06 0.0829656)
(-1.26377e-05 -2.09918e-05 0.0992188)
(5.55129e-06 4.81459e-06 0.0894562)
(-6.24278e-06 -1.27464e-05 0.0940326)
(1.05172e-05 2.00337e-05 0.0993066)
(2.92784e-06 4.46309e-06 0.0830219)
(4.13331e-06 3.05613e-06 0.0722434)
(3.0572e-06 4.14011e-06 0.0722426)
(-2.3557e-06 2.37658e-06 0.10902)
(-9.2481e-07 -1.15392e-06 0.1093)
(1.15083e-06 9.36434e-07 0.1093)
(9.39749e-07 -9.35784e-07 0.109477)
(2.35775e-06 2.36148e-06 0.10902)
(9.43096e-07 -1.14987e-06 0.1093)
(-1.14446e-06 9.4082e-07 0.1093)
(-9.32472e-07 -9.28604e-07 0.109477)
(-2.37289e-06 -2.3356e-06 0.10902)
(1.13713e-06 -9.34293e-07 0.1093)
(-9.36633e-07 1.12943e-06 0.109301)
(9.34201e-07 9.32389e-07 0.109477)
(2.36733e-06 -2.36599e-06 0.10902)
(-1.16892e-06 -9.28882e-07 0.1093)
(9.42431e-07 1.16533e-06 0.109301)
(-9.31824e-07 9.37042e-07 0.109477)
(-2.36116e-06 2.38272e-06 0.10902)
(-9.29679e-07 -1.15561e-06 0.1093)
(1.15271e-06 9.4281e-07 0.1093)
(9.4228e-07 -9.3463e-07 0.109477)
(2.36239e-06 2.37082e-06 0.10902)
(9.45754e-07 -1.14927e-06 0.1093)
(-1.14439e-06 9.45297e-07 0.1093)
(-9.34823e-07 -9.33597e-07 0.109477)
(1.66268e-07 -9.14108e-05 0.105706)
(-1.4426e-07 -2.24806e-05 0.102257)
(5.86526e-07 9.19931e-05 0.106394)
(-2.23475e-07 2.29555e-05 0.101133)
(-3.34838e-07 -8.96516e-05 0.106281)
(-2.81395e-07 -2.1877e-05 0.101015)
(7.08689e-07 9.54919e-05 0.105858)
(2.12915e-06 -9.59348e-05 0.104456)
(-2.62657e-06 2.14469e-05 0.0987939)
(4.52563e-06 -1.82943e-05 0.0955953)
(-4.43259e-06 8.53166e-05 0.102747)
(6.85093e-06 -8.92155e-05 0.102618)
(4.55901e-07 -2.10963e-05 0.0986617)
(-9.72909e-07 9.80109e-05 0.104632)
(-1.85503e-05 -1.8575e-05 0.100493)
(-7.2438e-05 -7.24593e-05 0.1065)
(2.21866e-05 7.66697e-05 0.104411)
(7.66354e-05 2.21872e-05 0.10441)
(-2.20823e-05 -7.64065e-05 0.10429)
(-7.63094e-05 -2.20637e-05 0.104287)
(1.99561e-05 1.99258e-05 0.100604)
(-1.9857e-05 -2.00465e-05 0.100604)
(-7.91823e-05 -7.92006e-05 0.106639)
(7.63982e-05 2.20694e-05 0.104291)
(2.20783e-05 7.62794e-05 0.104285)
(1.86074e-05 1.85534e-05 0.100493)
(-7.66481e-05 -2.22411e-05 0.10441)
(-2.21388e-05 -7.66076e-05 0.104412)
(6.99585e-07 -9.55539e-05 0.105859)
(-3.03855e-07 2.18704e-05 0.101017)
(-3.33107e-07 8.96016e-05 0.106282)
(1.53774e-07 -2.25543e-05 0.102357)
(1.79945e-07 9.13499e-05 0.105707)
(-2.46335e-07 -2.29422e-05 0.101133)
(5.94616e-07 -9.20517e-05 0.106395)
(-9.98819e-07 -9.80179e-05 0.104632)
(4.17344e-07 2.10935e-05 0.0986626)
(6.85519e-06 8.92909e-05 0.102618)
(-5.9629e-06 -1.59255e-05 0.0957091)
(-4.39936e-06 -8.52364e-05 0.102747)
(2.14158e-06 9.5988e-05 0.104457)
(-2.63894e-06 -2.14196e-05 0.098794)
(-7.16074e-07 -9.5571e-05 0.105858)
(2.99983e-07 2.18875e-05 0.101016)
(3.57674e-07 8.96239e-05 0.106282)
(-1.4631e-07 -2.25485e-05 0.102357)
(-1.70354e-07 9.13348e-05 0.105706)
(2.5861e-07 -2.29749e-05 0.101132)
(-5.96935e-07 -9.20305e-05 0.106395)
(9.55532e-07 -9.797e-05 0.10463)
(-4.18957e-07 2.11088e-05 0.098661)
(-6.8591e-06 8.93219e-05 0.102616)
(5.99174e-06 -1.60479e-05 0.095707)
(-2.14213e-06 9.60136e-05 0.104455)
(2.66786e-06 -2.1473e-05 0.0987918)
(4.37452e-06 -8.5224e-05 0.102745)
(1.99485e-05 -1.99515e-05 0.100605)
(7.92118e-05 -7.9181e-05 0.10664)
(-7.6373e-05 2.20666e-05 0.104287)
(-2.20953e-05 7.6337e-05 0.10429)
(7.66138e-05 -2.21768e-05 0.10441)
(-1.86113e-05 1.85466e-05 0.100494)
(2.22016e-05 -7.66818e-05 0.104412)
(9.13501e-05 -1.45315e-07 0.105707)
(2.24529e-05 1.74878e-07 0.102257)
(-9.2003e-05 -6.08333e-07 0.106394)
(-2.29268e-05 2.22541e-07 0.101132)
(8.96499e-05 3.47621e-07 0.106281)
(2.19355e-05 2.88297e-07 0.101016)
(-9.5524e-05 -7.00168e-07 0.105858)
(9.59962e-05 -2.09742e-06 0.104456)
(-2.14134e-05 2.63057e-06 0.0987933)
(1.82748e-05 -4.51997e-06 0.0955929)
(-8.52849e-05 4.3787e-06 0.102746)
(2.11e-05 -4.27176e-07 0.0986615)
(-9.79586e-05 9.7896e-07 0.104631)
(8.92649e-05 -6.82747e-06 0.102616)
(-9.54811e-05 7.25095e-07 0.105858)
(2.19001e-05 -2.72864e-07 0.101016)
(8.96414e-05 -3.29012e-07 0.106281)
(-2.25494e-05 1.80057e-07 0.102357)
(9.14381e-05 1.56092e-07 0.105706)
(-2.2939e-05 -2.12849e-07 0.101133)
(-9.20243e-05 5.99002e-07 0.106395)
(-9.80838e-05 -8.81964e-07 0.104632)
(2.0993e-05 4.41722e-07 0.0986614)
(8.92711e-05 6.88381e-06 0.102616)
(-1.61102e-05 -5.97539e-06 0.0957082)
(-8.52686e-05 -4.34697e-06 0.102746)
(9.59269e-05 2.15521e-06 0.104456)
(-2.15883e-05 -2.63593e-06 0.0987929)
(-9.55205e-05 -7.20101e-07 0.105858)
(8.96369e-05 3.41562e-07 0.106282)
(2.19471e-05 2.78077e-07 0.101016)
(-2.25207e-05 -1.54917e-07 0.102356)
(9.1349e-05 -1.67238e-07 0.105707)
(-9.2004e-05 -6.22814e-07 0.106395)
(-2.28942e-05 2.0719e-07 0.101132)
(-9.79461e-05 9.71422e-07 0.104631)
(2.11065e-05 -4.32912e-07 0.0986615)
(8.92638e-05 -6.81454e-06 0.102616)
(-1.59855e-05 5.92391e-06 0.0957088)
(9.59973e-05 -2.0952e-06 0.104456)
(-2.14128e-05 2.62773e-06 0.0987933)
(-8.52744e-05 4.38e-06 0.102746)
(-9.13373e-05 -1.69353e-07 0.105707)
(-2.24444e-05 1.65465e-07 0.102258)
(9.20135e-05 -5.94193e-07 0.106395)
(2.29045e-05 2.49291e-07 0.101133)
(-8.96187e-05 3.41731e-07 0.106282)
(-2.1959e-05 2.84777e-07 0.101016)
(9.55279e-05 -6.98157e-07 0.105857)
(-9.59974e-05 -2.12403e-06 0.104456)
(2.14287e-05 2.66028e-06 0.0987936)
(-1.83079e-05 -4.53167e-06 0.0955947)
(8.52705e-05 4.42233e-06 0.102746)
(-8.92865e-05 -6.84336e-06 0.102618)
(-2.10956e-05 -4.32431e-07 0.0986616)
(9.79574e-05 1.0036e-06 0.104631)
(9.5485e-05 7.1771e-07 0.105859)
(-2.18778e-05 -2.9104e-07 0.101015)
(-8.96083e-05 -3.30255e-07 0.106282)
(2.2549e-05 1.7081e-07 0.102357)
(-9.14123e-05 1.62573e-07 0.105707)
(2.29385e-05 -2.31483e-07 0.101133)
(9.20356e-05 6.03643e-07 0.106395)
(9.8011e-05 -9.49193e-07 0.104633)
(-2.10683e-05 4.35456e-07 0.0986611)
(-8.92415e-05 6.86626e-06 0.102618)
(1.60233e-05 -5.94679e-06 0.0957102)
(-9.59579e-05 2.13871e-06 0.104456)
(8.52668e-05 -4.39807e-06 0.102748)
(2.14736e-05 -2.62238e-06 0.0987945)
(9.55264e-05 -7.16849e-07 0.105857)
(-8.96021e-05 3.29025e-07 0.106282)
(-2.19679e-05 2.67348e-07 0.101016)
(2.25035e-05 -1.46558e-07 0.102357)
(-9.13351e-05 -1.94081e-07 0.105707)
(9.20187e-05 -6.13432e-07 0.106395)
(2.28789e-05 2.28866e-07 0.101133)
(9.79459e-05 9.97251e-07 0.104631)
(-2.11057e-05 -4.41892e-07 0.0986616)
(-8.92851e-05 -6.83663e-06 0.102618)
(1.60178e-05 5.96067e-06 0.0957084)
(-9.60004e-05 -2.12388e-06 0.104456)
(2.14234e-05 2.65356e-06 0.0987937)
(8.52627e-05 4.41614e-06 0.102746)
(1.85173e-05 -1.86189e-05 0.100493)
(7.24049e-05 -7.24728e-05 0.1065)
(-2.21608e-05 7.6618e-05 0.10441)
(-7.66912e-05 2.22026e-05 0.104411)
(7.63314e-05 -2.20982e-05 0.10429)
(2.20385e-05 -7.6396e-05 0.104287)
(-1.99359e-05 1.99467e-05 0.100604)
(-1.98937e-05 1.99088e-05 0.100604)
(-7.9187e-05 7.92272e-05 0.106639)
(2.20375e-05 -7.63831e-05 0.104287)
(7.63185e-05 -2.20934e-05 0.10429)
(-2.21529e-05 7.66124e-05 0.10441)
(1.85691e-05 -1.8668e-05 0.100493)
(-7.66861e-05 2.22005e-05 0.104411)
(-1.38889e-07 -9.14104e-05 0.105706)
(1.60635e-07 -2.24658e-05 0.102256)
(-6.10088e-07 9.1974e-05 0.106394)
(2.10738e-07 2.28837e-05 0.101132)
(3.39113e-07 -8.96795e-05 0.106281)
(2.63035e-07 -2.19713e-05 0.101014)
(-7.17842e-07 9.54609e-05 0.105857)
(-2.08446e-06 -9.5918e-05 0.104455)
(2.62476e-06 2.1477e-05 0.0987927)
(-4.52018e-06 -1.82911e-05 0.0955938)
(4.43656e-06 8.53102e-05 0.102746)
(-6.82362e-06 -8.92419e-05 0.102616)
(-4.50561e-07 -2.10955e-05 0.0986607)
(9.83077e-07 9.80278e-05 0.104631)
(7.17643e-07 9.54966e-05 0.105858)
(-3.34739e-07 -8.96319e-05 0.106281)
(-2.5737e-07 -2.19376e-05 0.101015)
(1.6923e-07 2.25249e-05 0.102356)
(1.84604e-07 -9.14032e-05 0.105706)
(5.86942e-07 9.20041e-05 0.106394)
(-2.01969e-07 2.29021e-05 0.101133)
(-9.6661e-07 9.79998e-05 0.104631)
(4.68369e-07 -2.11067e-05 0.0986616)
(6.84547e-06 -8.92136e-05 0.102618)
(-5.97755e-06 1.60421e-05 0.0957084)
(2.13666e-06 -9.59392e-05 0.104456)
(-4.43158e-06 8.53103e-05 0.102747)
(-2.61625e-06 2.14457e-05 0.0987939)
(-7.28977e-07 9.54627e-05 0.105857)
(3.24094e-07 -8.96581e-05 0.106281)
(2.46642e-07 -2.19776e-05 0.101014)
(-1.67692e-07 2.25133e-05 0.102356)
(-1.59388e-07 -9.14045e-05 0.105706)
(-6.15389e-07 9.1981e-05 0.106394)
(1.93299e-07 2.28632e-05 0.101132)
(9.79601e-07 9.80205e-05 0.104631)
(-4.59119e-07 -2.11047e-05 0.0986607)
(-6.81707e-06 -8.92377e-05 0.102616)
(5.95664e-06 1.60628e-05 0.0957082)
(-2.08004e-06 -9.59166e-05 0.104455)
(2.61838e-06 2.14745e-05 0.0987928)
(4.43077e-06 8.53052e-05 0.102746)
(1.99107e-05 1.98839e-05 0.100604)
(7.91735e-05 7.92034e-05 0.106639)
(-2.2084e-05 -7.63969e-05 0.10429)
(-7.63019e-05 -2.20599e-05 0.104287)
(-1.86073e-05 -1.86281e-05 0.100493)
(2.21772e-05 7.66594e-05 0.104411)
(7.66235e-05 2.21825e-05 0.10441)
(2.62117e-06 4.65341e-06 0.0721797)
(4.59949e-06 2.6369e-06 0.0721781)
(7.24284e-05 7.24255e-05 0.1065)
(5.76735e-06 6.25953e-06 0.0893898)
(6.27571e-06 5.76417e-06 0.0893867)
(-1.39226e-07 9.72267e-06 0.0940758)
(2.45682e-07 9.72915e-06 0.083566)
(1.01854e-07 9.73868e-06 0.0940757)
(-1.56374e-07 2.25422e-05 0.102258)
(3.07134e-06 1.74303e-06 0.107943)
(4.57822e-06 1.83382e-05 0.0955956)
(-6.29629e-07 2.15674e-06 0.108654)
(1.35875e-07 2.25605e-05 0.102258)
(5.77993e-07 2.18165e-06 0.108654)
(9.77094e-06 -1.13921e-07 0.0940761)
(9.62523e-06 2.23935e-07 0.083565)
(2.25748e-05 -1.31367e-07 0.102258)
(1.60942e-06 2.90633e-06 0.107943)
(1.84227e-05 4.52009e-06 0.0955938)
(2.14082e-06 -5.85323e-07 0.108654)
(9.77542e-06 1.36745e-07 0.0940761)
(9.61849e-06 -2.4532e-07 0.0835638)
(2.25905e-05 1.65218e-07 0.102258)
(1.69486e-06 -3.03755e-06 0.107943)
(2.19127e-06 5.75685e-07 0.108654)
(1.83884e-05 -4.54513e-06 0.0955931)
(4.52205e-06 -2.60061e-06 0.0721751)
(7.2374e-05 -7.24054e-05 0.1065)
(6.2208e-06 -5.76327e-06 0.0893845)
(5.75515e-06 -6.25955e-06 0.0893886)
(2.63e-06 -4.63337e-06 0.0721791)
(-1.61198e-07 -2.25316e-05 0.102257)
(2.9576e-06 -1.64494e-06 0.107943)
(-5.70643e-07 -2.10001e-06 0.108654)
(4.54604e-06 -1.83821e-05 0.095595)
(1.27703e-07 -2.25549e-05 0.102257)
(5.88544e-07 -2.11504e-06 0.108654)
(-1.4069e-07 -9.72273e-06 0.0940745)
(2.47573e-07 -9.69095e-06 0.0835661)
(1.09688e-07 -9.78091e-06 0.0940756)
(-3.07828e-06 -4.12964e-06 0.0722446)
(-4.17957e-06 -3.05712e-06 0.0722437)
(-3.92596e-06 -4.00392e-06 0.0853784)
(2.58856e-06 2.36623e-06 0.0693128)
(2.48589e-06 2.61497e-06 0.069308)
(4.03593e-06 3.99097e-06 0.0853249)
(-2.7796e-06 -2.12568e-06 0.0693672)
(-2.01763e-06 -2.78753e-06 0.0693624)
(-5.70859e-06 -1.30086e-05 0.0941123)
(2.6682e-06 5.14132e-06 0.0829711)
(1.26165e-05 2.09699e-05 0.0992233)
(-5.58429e-06 -4.80571e-06 0.0894588)
(6.16981e-06 1.27231e-05 0.0940405)
(-2.91234e-06 -4.46115e-06 0.0830273)
(-1.05189e-05 -2.01033e-05 0.0993103)
(-1.29577e-05 -5.68205e-06 0.0941049)
(5.17694e-06 2.69019e-06 0.0829662)
(2.10199e-05 1.26663e-05 0.0992183)
(-4.81587e-06 -5.60088e-06 0.0894568)
(1.27324e-05 6.27446e-06 0.094033)
(-4.44795e-06 -2.92247e-06 0.0830226)
(-2.00257e-05 -1.05086e-05 0.0993063)
(6.33418e-07 -4.92487e-06 0.0778737)
(-3.09159e-07 4.7546e-06 0.0796857)
(-3.76953e-07 9.44248e-06 0.092191)
(-6.24267e-08 -1.05993e-05 0.0941422)
(-1.2886e-06 4.94974e-06 0.0778196)
(7.16291e-08 -4.58549e-06 0.079732)
(-4.46874e-07 -1.05262e-05 0.0922631)
(3.08134e-07 -4.18224e-06 0.0691004)
(-7.35466e-07 8.06964e-06 0.0874857)
(-2.21762e-06 -8.59336e-06 0.0836363)
(-1.94179e-06 4.49658e-06 0.0690253)
(-1.51857e-06 -8.21359e-06 0.0875638)
(-7.17545e-07 -4.98478e-06 0.0778738)
(2.72479e-07 4.76643e-06 0.0796865)
(3.06348e-07 9.48823e-06 0.0921913)
(3.89999e-08 -1.05944e-05 0.0941421)
(1.21996e-06 5.03366e-06 0.0778226)
(-1.11751e-07 -4.59186e-06 0.0797325)
(3.8678e-07 -1.05648e-05 0.0922627)
(-5.00978e-06 6.60419e-07 0.0778732)
(9.46541e-06 -3.58758e-07 0.0921915)
(4.81431e-06 -2.78292e-07 0.079688)
(-1.06591e-05 -5.15573e-08 0.094141)
(5.01982e-06 -1.25087e-06 0.0778226)
(-1.06051e-05 -4.38404e-07 0.0922622)
(-4.67678e-06 9.45463e-08 0.0797312)
(-4.27245e-06 2.87111e-07 0.069097)
(8.06465e-06 -7.19276e-07 0.0874857)
(-8.64817e-06 -2.2031e-06 0.0836367)
(4.59923e-06 -1.8707e-06 0.0690265)
(-8.30346e-06 -1.5336e-06 0.0875626)
(-4.95003e-06 -6.69688e-07 0.0778741)
(4.80783e-06 2.83127e-07 0.0796879)
(9.44091e-06 3.69099e-07 0.0921907)
(-1.0646e-05 4.71585e-08 0.0941407)
(4.94557e-06 1.24562e-06 0.0778203)
(-4.66953e-06 -8.26159e-08 0.0797314)
(-1.05541e-05 4.1675e-07 0.0922626)
(-4.18477e-06 -3.28056e-07 0.0691003)
(8.03344e-06 7.32129e-07 0.0874849)
(-8.60668e-06 2.17599e-06 0.0836367)
(4.4909e-06 1.90999e-06 0.069025)
(-8.24946e-06 1.49768e-06 0.0875635)
(-4.07395e-06 2.98338e-06 0.0722453)
(-3.98519e-06 3.9478e-06 0.0853778)
(2.40616e-06 -2.60266e-06 0.069307)
(2.57363e-06 -2.42514e-06 0.0693133)
(3.9934e-06 -4.055e-06 0.0853245)
(-2.07479e-06 2.77485e-06 0.069362)
(-2.79584e-06 2.06379e-06 0.0693681)
(-1.2994e-05 5.66656e-06 0.0941046)
(5.11371e-06 -2.67912e-06 0.0829643)
(2.09223e-05 -1.26829e-05 0.0992178)
(-4.75833e-06 5.53841e-06 0.0894581)
(-2.00945e-05 1.04668e-05 0.0993072)
(1.26546e-05 -6.24799e-06 0.094032)
(-4.43057e-06 2.88756e-06 0.0830229)
(-5.67943e-06 1.29781e-05 0.0941122)
(2.63842e-06 -5.10503e-06 0.0829701)
(1.26471e-05 -2.09995e-05 0.0992224)
(-5.5987e-06 4.82393e-06 0.0894588)
(6.18909e-06 -1.2711e-05 0.0940404)
(-2.90055e-06 4.44357e-06 0.0830278)
(-1.05099e-05 2.00502e-05 0.0993101)
(-3.07285e-06 4.14934e-06 0.0722442)
(6.63405e-07 4.93764e-06 0.0778742)
(-3.41056e-07 -9.44288e-06 0.09219)
(-2.83276e-07 -4.7701e-06 0.0796863)
(-6.2169e-08 1.06084e-05 0.0941418)
(-1.27106e-06 -4.9576e-06 0.0778204)
(-4.33228e-07 1.05482e-05 0.092263)
(8.53444e-08 4.59143e-06 0.0797325)
(3.16974e-07 4.26782e-06 0.0690991)
(-6.82613e-07 -8.08392e-06 0.0874868)
(-2.20031e-06 8.65467e-06 0.083636)
(-1.85614e-06 -4.58476e-06 0.0690287)
(-1.50691e-06 8.28768e-06 0.0875627)
(-7.05293e-07 4.92736e-06 0.077875)
(3.33596e-07 -9.44734e-06 0.0921901)
(3.03414e-07 -4.81056e-06 0.0796876)
(3.51195e-08 1.06257e-05 0.0941408)
(1.21964e-06 -4.96544e-06 0.0778206)
(3.77452e-07 1.05223e-05 0.0922633)
(-7.60463e-08 4.64438e-06 0.0797318)
(-2.34279e-06 -2.40222e-06 0.10902)
(1.09485e-06 -1.01366e-06 0.1093)
(-9.65594e-07 1.12925e-06 0.1093)
(8.63104e-07 8.68579e-07 0.109477)
(-1.16098e-06 -9.94015e-07 0.1093)
(-8.51182e-07 8.57733e-07 0.109477)
(-2.35806e-06 2.28337e-06 0.109019)
(-9.98103e-07 -1.08777e-06 0.1093)
(1.05298e-06 1.00978e-06 0.1093)
(8.19363e-07 -8.89296e-07 0.109477)
(-1.10864e-06 9.94979e-07 0.1093)
(-8.37753e-07 -8.93158e-07 0.109477)
(-1.99681e-05 -1.989e-05 0.100604)
(-7.91629e-05 -7.91717e-05 0.106639)
(7.64428e-05 2.21506e-05 0.10429)
(2.20293e-05 7.62922e-05 0.104287)
(1.85427e-05 1.87075e-05 0.100493)
(-7.65901e-05 -2.21385e-05 0.104412)
(-2.21914e-05 -7.66445e-05 0.104409)
(6.52261e-07 -9.55177e-05 0.105858)
(-3.00461e-07 2.19528e-05 0.101017)
(-3.26425e-07 8.96014e-05 0.106282)
(1.52414e-07 -2.25168e-05 0.102358)
(1.49468e-07 9.13475e-05 0.105707)
(-2.61732e-07 -2.29131e-05 0.101133)
(5.96009e-07 -9.19966e-05 0.106395)
(-9.64161e-07 -9.79044e-05 0.104631)
(4.09402e-07 2.10693e-05 0.0986631)
(6.92336e-06 8.92882e-05 0.102618)
(-5.97035e-06 -1.60348e-05 0.0957082)
(-4.35773e-06 -8.52055e-05 0.102746)
(2.18701e-06 9.60251e-05 0.104457)
(-2.67225e-06 -2.13889e-05 0.0987937)
(-6.76515e-07 -9.55359e-05 0.105858)
(2.65134e-07 2.19852e-05 0.101015)
(3.51037e-07 8.96135e-05 0.106281)
(-1.65182e-07 -2.25029e-05 0.102357)
(-1.4818e-07 9.13311e-05 0.105706)
(2.27988e-07 -2.29026e-05 0.101133)
(-5.9149e-07 -9.19759e-05 0.106395)
(-9.55136e-05 6.80549e-07 0.105858)
(2.19949e-05 -2.7041e-07 0.101016)
(8.95769e-05 -3.51259e-07 0.106281)
(-2.25053e-05 1.64565e-07 0.102356)
(9.13596e-05 8.26574e-08 0.105706)
(-2.28968e-05 -2.20461e-07 0.101133)