/*--------------------------------*- C++ -*----------------------------------*\
| =========                 |                                                 |
| \\      /  F ield         | OpenFOAM: The Open Source CFD Toolbox           |
|  \\    /   O peration     | Version:  v1912                                 |
|   \\  /    A nd           | Website:  www.openfoam.com                      |
|    \\/     M anipulation  |                                                 |
\*---------------------------------------------------------------------------*/
FoamFile
{
    version     2.0;
    format      ascii;
    class       volScalarField;
    location    "80";
    object      epsilon;
}
// * * * * * * * * * * * * * * * * * * * * * * * * * * * * * * * * * * * * * //

dimensions      [0 2 -3 0 0 0 0];


internalField   nonuniform List<scalar> 
57566
(
1.86252e-05
7.67272e-07
1.96911e-07
1.53643e-07
2.32281e-06
2.70433e-07
4.75028e-06
4.7522e-06
1.86208e-05
1.86238e-05
2.71118e-07
4.75106e-06
4.75318e-06
2.95174e-06
8.76581e-06
2.95237e-06
8.76764e-06
7.67729e-07
1.96933e-07
2.32373e-06
1.53639e-07
7.67899e-07
1.96972e-07
2.32477e-06
1.53653e-07
1.86233e-05
2.71093e-07
4.75311e-06
4.7511e-06
1.86208e-05
2.95179e-06
8.76731e-06
7.67224e-07
1.9697e-07
1.53649e-07
2.32287e-06
2.95203e-06
8.7682e-06
7.67916e-07
1.96926e-07
2.32451e-06
1.53644e-07
2.95217e-06
8.76712e-06
7.67536e-07
1.96974e-07
1.53649e-07
2.32374e-06
7.67158e-07
1.96946e-07
1.53642e-07
2.32259e-06
2.95166e-06
8.76711e-06
7.67864e-07
1.96887e-07
2.3238e-06
1.53638e-07
2.9524e-06
8.76728e-06
7.67467e-07
1.96949e-07
1.53643e-07
2.32337e-06
2.9521e-06
8.76692e-06
2.70416e-07
4.75213e-06
4.75089e-06
1.86246e-05
1.8623e-05
2.71046e-07
4.75249e-06
4.75114e-06
1.86225e-05
7.67313e-07
1.96927e-07
1.53646e-07
2.32297e-06
2.95199e-06
8.76729e-06
2.95202e-06
8.76837e-06
7.6758e-07
1.96915e-07
1.53644e-07
2.3236e-06
7.67628e-07
1.96931e-07
1.53646e-07
2.32376e-06
2.95236e-06
8.76711e-06
2.9524e-06
8.76818e-06
1.86236e-05
1.8625e-05
2.7106e-07
4.75054e-06
4.75242e-06
1.86216e-05
1.86229e-05
1.86235e-05
9.43348e-06
2.21002e-05
2.20997e-05
2.20979e-05
2.20974e-05
9.43292e-06
3.36519e-06
8.80599e-06
4.75099e-06
1.43291e-06
1.43365e-06
8.80585e-06
3.36443e-06
3.3713e-06
8.81054e-06
4.75286e-06
1.4342e-06
1.43493e-06
8.8104e-06
3.37056e-06
1.86225e-05
1.86255e-05
9.43247e-06
2.20973e-05
2.20975e-05
9.43316e-06
2.20997e-05
2.20995e-05
3.36444e-06
8.80581e-06
1.43338e-06
4.75029e-06
3.36503e-06
8.80601e-06
1.43286e-06
3.37027e-06
8.81109e-06
1.43484e-06
4.75261e-06
3.37134e-06
8.81105e-06
1.43413e-06
1.2159e-05
1.08096e-05
3.83871e-06
2.95119e-06
1.21586e-05
1.08098e-05
3.83827e-06
2.25246e-05
6.88364e-06
8.76584e-06
2.2521e-05
6.8829e-06
1.21603e-05
1.08101e-05
3.84023e-06
2.95182e-06
1.216e-05
1.08103e-05
3.83985e-06
2.25268e-05
6.88574e-06
8.76768e-06
2.25237e-05
6.88515e-06
1.86249e-05
9.43253e-06
2.20972e-05
2.20978e-05
9.43318e-06
2.20995e-05
2.21001e-05
3.37036e-06
8.81067e-06
1.43475e-06
4.75255e-06
1.43416e-06
3.37127e-06
8.81079e-06
3.36411e-06
8.80617e-06
1.43328e-06
4.7504e-06
3.365e-06
8.80627e-06
1.43267e-06
1.86225e-05
1.21598e-05
2.95243e-06
1.08108e-05
3.83905e-06
1.08106e-05
3.83978e-06
1.216e-05
2.25221e-05
6.88296e-06
8.76727e-06
6.884e-06
2.25254e-05
1.21596e-05
3.8393e-06
1.08107e-05
2.95153e-06
1.21593e-05
3.83889e-06
1.08108e-05
2.25252e-05
6.88556e-06
8.76823e-06
2.25222e-05
6.88501e-06
1.21597e-05
1.08105e-05
3.83939e-06
2.95183e-06
1.21593e-05
1.08107e-05
3.83901e-06
2.25246e-05
6.8833e-06
8.76714e-06
2.25212e-05
6.88275e-06
1.21601e-05
2.9524e-06
1.08104e-05
3.8392e-06
1.08102e-05
3.83979e-06
1.21603e-05
2.25221e-05
6.88229e-06
8.76707e-06
6.88305e-06
2.25251e-05
1.216e-05
3.83986e-06
1.08103e-05
2.95183e-06
1.21597e-05
3.83949e-06
1.08105e-05
2.2525e-05
6.88475e-06
8.76732e-06
2.25219e-05
6.8842e-06
1.21599e-05
1.08101e-05
3.83949e-06
2.95172e-06
1.21596e-05
1.08103e-05
3.83918e-06
2.25244e-05
6.88248e-06
8.76696e-06
2.25213e-05
6.88209e-06
9.43395e-06
2.21007e-05
2.21009e-05
2.20983e-05
2.20986e-05
9.4334e-06
3.37148e-06
8.81053e-06
4.75294e-06
1.43402e-06
8.81039e-06
1.43476e-06
3.37069e-06
3.36541e-06
8.80646e-06
4.75157e-06
1.43289e-06
1.4336e-06
8.80632e-06
3.36463e-06
1.8623e-05
1.86247e-05
9.43317e-06
2.20977e-05
2.20979e-05
9.43344e-06
2.21e-05
2.21002e-05
3.37089e-06
8.81024e-06
1.43446e-06
4.75208e-06
1.43408e-06
3.37137e-06
8.81038e-06
3.36483e-06
8.80617e-06
1.43332e-06
4.75082e-06
3.36531e-06
8.8063e-06
1.43295e-06
1.86242e-05
1.21601e-05
2.95263e-06
3.8392e-06
1.0811e-05
3.83976e-06
1.08108e-05
1.21603e-05
2.25221e-05
6.88224e-06
8.76725e-06
6.883e-06
2.25251e-05
1.216e-05
2.95267e-06
3.83956e-06
1.08112e-05
3.84012e-06
1.0811e-05
1.21602e-05
2.25223e-05
6.88442e-06
8.76833e-06
6.88514e-06
2.25253e-05
1.21599e-05
3.83952e-06
1.08108e-05
2.95203e-06
1.21596e-05
3.83923e-06
1.08109e-05
2.25244e-05
6.88243e-06
8.76715e-06
2.25213e-05
6.88203e-06
1.21598e-05
3.83983e-06
1.08109e-05
2.95206e-06
1.21595e-05
3.83953e-06
1.0811e-05
2.25245e-05
6.88457e-06
8.76821e-06
2.25214e-05
6.88421e-06
1.8622e-05
1.86234e-05
9.43268e-06
2.20972e-05
2.20967e-05
9.43297e-06
2.20995e-05
2.2099e-05
3.36463e-06
8.8057e-06
1.43332e-06
4.75021e-06
3.3651e-06
1.43294e-06
8.80584e-06
3.37076e-06
8.81024e-06
1.43461e-06
4.75209e-06
3.37122e-06
1.43423e-06
8.81038e-06
1.86232e-05
1.86246e-05
1.37496e-07
1.26689e-07
1.26688e-07
1.21812e-07
1.37495e-07
1.26689e-07
1.26687e-07
1.21812e-07
1.3748e-07
1.26679e-07
1.26677e-07
1.21804e-07
1.37493e-07
1.26689e-07
1.26688e-07
1.21811e-07
1.37496e-07
1.26688e-07
1.26688e-07
1.21812e-07
1.37495e-07
1.26689e-07
1.26687e-07
1.21812e-07
3.42623e-07
7.67912e-07
2.87699e-07
1.01511e-06
2.8814e-07
1.016e-06
3.41826e-07
4.73061e-07
1.59521e-06
2.32403e-06
7.10903e-07
7.11821e-07
1.59653e-06
4.72039e-07
1.22551e-06
2.71139e-07
5.16167e-07
5.16355e-07
5.16995e-07
5.17197e-07
1.22444e-06
1.22438e-06
2.7042e-07
5.1705e-07
5.17232e-07
1.22545e-06
5.16229e-07
5.16373e-07
3.41671e-07
1.01567e-06
2.88078e-07
7.67085e-07
3.42465e-07
1.01477e-06
2.8766e-07
4.71923e-07
1.59738e-06
7.11846e-07
2.32287e-06
7.10951e-07
4.72916e-07
1.59635e-06
3.41803e-07
1.01623e-06
2.88112e-07
7.67258e-07
3.42595e-07
1.01534e-06
2.87696e-07
4.72164e-07
1.59822e-06
7.12168e-07
2.32362e-06
4.73161e-07
1.5972e-06
7.11257e-07
1.2243e-06
2.7039e-07
5.1719e-07
5.17e-07
5.1635e-07
1.22538e-06
5.16157e-07
3.42593e-07
7.6789e-07
2.87692e-07
1.01513e-06
2.88124e-07
1.01596e-06
3.41803e-07
4.73081e-07
1.59524e-06
2.32417e-06
7.1114e-07
1.59654e-06
4.72067e-07
7.12076e-07
3.4177e-07
1.01597e-06
2.88122e-07
7.67248e-07
3.42568e-07
1.01506e-06
2.87701e-07
4.72054e-07
1.59795e-06
7.12147e-07
2.32348e-06
7.11198e-07
4.73073e-07
1.59679e-06
3.41852e-07
2.88062e-07
1.0156e-06
7.67094e-07
3.4252e-07
2.87689e-07
1.015e-06
4.72083e-07
1.59625e-06
7.11922e-07
2.32276e-06
4.72945e-07
1.5955e-06
7.11171e-07
3.42589e-07
7.67812e-07
2.87656e-07
1.01522e-06
2.88087e-07
1.01605e-06
3.41802e-07
4.73055e-07
1.59525e-06
2.32373e-06
7.10906e-07
7.11825e-07
1.59657e-06
4.72044e-07
3.41771e-07
1.01606e-06
2.88091e-07
7.67207e-07
3.42573e-07
1.01516e-06
2.87667e-07
4.72022e-07
1.59786e-06
7.11759e-07
2.32247e-06
4.73037e-07
7.10837e-07
1.5968e-06
3.41852e-07
2.88024e-07
1.0157e-06
7.67022e-07
3.4252e-07
2.87653e-07
1.01509e-06
4.72061e-07
1.59627e-06
7.11679e-07
2.32241e-06
4.7292e-07
1.59551e-06
7.1094e-07
1.22557e-06
2.71119e-07
5.16343e-07
5.162e-07
5.17035e-07
5.1719e-07
1.22451e-06
1.22441e-06
2.70374e-07
5.1699e-07
5.1684e-07
5.16376e-07
1.22528e-06
5.16232e-07
3.42672e-07
7.67976e-07
2.87721e-07
1.01538e-06
2.88158e-07
1.01621e-06
3.41879e-07
4.73191e-07
1.59564e-06
2.32427e-06
7.1116e-07
7.12095e-07
1.59695e-06
4.72167e-07
3.41864e-07
2.88071e-07
1.01557e-06
7.67132e-07
3.42543e-07
2.87692e-07
1.01493e-06
4.72048e-07
1.59622e-06
7.11679e-07
2.32268e-06
4.72917e-07
7.10941e-07
1.59546e-06
3.41924e-07
2.88092e-07
1.01586e-06
7.67173e-07
3.426e-07
2.87714e-07
1.01525e-06
4.7218e-07
1.59665e-06
7.11942e-07
2.3228e-06
4.73054e-07
1.5959e-06
7.11194e-07
1.22434e-06
2.70383e-07
5.16807e-07
5.17002e-07
1.22521e-06
5.16204e-07
5.16392e-07
1.86212e-05
1.86229e-05
2.71218e-07
4.75283e-06
4.75454e-06
2.95402e-06
8.76642e-06
2.95454e-06
7.67611e-07
1.96957e-07
2.32444e-06
1.5357e-07
7.67755e-07
1.53582e-07
2.9544e-06
8.76837e-06
7.67814e-07
1.96939e-07
2.32493e-06
1.53574e-07
2.95461e-06
8.76769e-06
7.67838e-07
1.9697e-07
1.53579e-07
2.32492e-06
1.86226e-05
2.71204e-07
4.75416e-06
4.75288e-06
1.86221e-05
7.67836e-07
1.96935e-07
1.53573e-07
2.32457e-06
7.67809e-07
1.53568e-07
2.95458e-06
8.76773e-06
2.95461e-06
1.86231e-05
1.86248e-05
9.43335e-06
2.2097e-05
2.20973e-05
9.43349e-06
2.20996e-05
2.20999e-05
3.36782e-06
8.80768e-06
1.43511e-06
4.75263e-06
3.36812e-06
8.80775e-06
1.43476e-06
3.37305e-06
8.81169e-06
1.4366e-06
4.75432e-06
3.37334e-06
8.81179e-06
1.43623e-06
1.21587e-05
1.08086e-05
3.84116e-06
2.95365e-06
1.21582e-05
1.08087e-05
3.84077e-06
2.25246e-05
6.88498e-06
8.76641e-06
2.25209e-05
6.88453e-06
1.21598e-05
1.08091e-05
3.8422e-06
2.95417e-06
1.21594e-05
1.08091e-05
3.84186e-06
1.21593e-05
3.84168e-06
1.08096e-05
2.95408e-06
1.21589e-05
3.84135e-06
1.08097e-05
2.25253e-05
6.88669e-06
8.76845e-06
2.25218e-05
6.88638e-06
1.21597e-05
1.08095e-05
3.84194e-06
2.9543e-06
1.21593e-05
1.08096e-05
3.84154e-06
2.25258e-05
6.88518e-06
8.76776e-06
2.2522e-05
6.88472e-06
1.86247e-05
9.43502e-06
2.20981e-05
2.20983e-05
9.43512e-06
2.21009e-05
2.2101e-05
3.37292e-06
8.8112e-06
1.43612e-06
4.75379e-06
1.43573e-06
3.37321e-06
8.8113e-06
3.36684e-06
8.80711e-06
1.43498e-06
4.75266e-06
3.36714e-06
8.80723e-06
1.43461e-06
1.86241e-05
1.21596e-05
3.84176e-06
1.08093e-05
2.95418e-06
1.21592e-05
3.84135e-06
1.08094e-05
2.25259e-05
6.88453e-06
8.76781e-06
2.25224e-05
6.88426e-06
1.21589e-05
3.84177e-06
1.08095e-05
2.95431e-06
1.21585e-05
3.84135e-06
1.08096e-05
1.37382e-07
1.26561e-07
1.26561e-07
1.21676e-07
1.2657e-07
1.21681e-07
1.37399e-07
1.26573e-07
1.26573e-07
1.21683e-07
1.26568e-07
1.21682e-07
1.22558e-06
2.70555e-07
5.17517e-07
5.17909e-07
1.22562e-06
5.16782e-07
5.17156e-07
3.41956e-07
1.01555e-06
2.88163e-07
7.67511e-07
3.42635e-07
1.01536e-06
2.87777e-07
4.72304e-07
1.59734e-06
7.12593e-07
2.32397e-06
7.11695e-07
4.73134e-07
1.59628e-06
3.42057e-07
1.01605e-06
2.88196e-07
7.67657e-07
3.42745e-07
1.01582e-06
2.87811e-07
3.42046e-07
1.01586e-06
2.88213e-07
7.6771e-07
3.42733e-07
1.01565e-06
2.87829e-07
4.72448e-07
1.59792e-06
7.12876e-07
2.32419e-06
7.11965e-07
4.73293e-07
1.59686e-06
3.42044e-07
2.88214e-07
1.01585e-06
7.67751e-07
3.42722e-07
2.87834e-07
1.01565e-06
4.72408e-07
1.59757e-06
7.12828e-07
2.32411e-06
4.7325e-07
1.59651e-06
7.11913e-07
1.22546e-06
2.7054e-07
5.17683e-07
5.17543e-07
5.16939e-07
1.22547e-06
5.16805e-07
3.42065e-07
2.88204e-07
1.01587e-06
7.67718e-07
3.42747e-07
2.8782e-07
1.01566e-06
4.72409e-07
1.59752e-06
7.12612e-07
2.32396e-06
4.73265e-07
7.11702e-07
1.59646e-06
3.42017e-07
2.88184e-07
1.01586e-06
7.67719e-07
3.42704e-07
2.87804e-07
1.01562e-06
1.37381e-07
1.969e-07
1.96935e-07
2.71214e-07
1.3738e-07
1.96905e-07
1.96935e-07
2.71209e-07
1.9696e-07
1.9699e-07
1.96985e-07
1.9699e-07
2.71181e-07
2.70507e-07
1.96961e-07
1.96903e-07
1.9696e-07
1.96935e-07
1.96937e-07
1.96935e-07
2.70536e-07
2.71212e-07
1.96958e-07
1.96989e-07
2.71168e-07
1.96934e-07
1.96964e-07
1.96958e-07
2.71205e-07
1.96936e-07
2.95355e-06
8.76642e-06
2.95409e-06
8.76684e-06
1.86229e-05
1.86248e-05
1.37386e-07
1.37395e-07
1.37387e-07
1.3738e-07
1.37387e-07
1.37395e-07
1.37389e-07
7.67298e-07
2.32427e-06
1.53561e-07
1.96901e-07
2.3232e-06
1.53564e-07
7.67778e-07
7.67378e-07
1.53569e-07
2.32461e-06
1.96941e-07
1.53572e-07
7.67865e-07
2.32359e-06
4.75211e-06
4.75399e-06
2.70551e-07
4.75174e-06
4.75364e-06
2.95344e-06
8.76655e-06
2.95404e-06
8.76649e-06
1.86228e-05
1.86247e-05
2.95387e-06
8.76825e-06
8.76844e-06
2.95442e-06
1.37391e-07
1.37399e-07
1.37393e-07
7.67803e-07
2.32425e-06
1.53563e-07
1.96907e-07
7.6776e-07
2.3237e-06
1.53566e-07
1.86227e-05
1.86247e-05
7.67348e-07
1.53568e-07
2.3246e-06
1.96934e-07
7.67836e-07
1.53571e-07
2.32355e-06
4.75211e-06
4.75399e-06
2.70555e-07
4.75184e-06
4.75375e-06
2.95402e-06
8.768e-06
8.76808e-06
2.95466e-06
7.67162e-07
2.3245e-06
1.53565e-07
1.96997e-07
1.53572e-07
7.67626e-07
2.32376e-06
7.67304e-07
2.32494e-06
1.53576e-07
1.9699e-07
2.32392e-06
1.53581e-07
7.67788e-07
2.95378e-06
8.76662e-06
2.95347e-06
8.76671e-06
2.95419e-06
8.7681e-06
8.76796e-06
2.95391e-06
7.67486e-07
1.96974e-07
2.32357e-06
1.53569e-07
1.5357e-07
7.67153e-07
2.32452e-06
7.67629e-07
1.9699e-07
2.32392e-06
1.53579e-07
2.32471e-06
1.5358e-07
7.67297e-07
4.75458e-06
4.75241e-06
2.70506e-07
4.75421e-06
4.75185e-06
1.86199e-05
1.86219e-05
1.86248e-05
1.8623e-05
2.71164e-07
4.75417e-06
4.75178e-06
4.75439e-06
4.75211e-06
1.86218e-05
1.862e-05
2.95407e-06
8.76761e-06
8.76769e-06
2.95472e-06
7.67304e-07
1.53566e-07
2.3244e-06
1.9696e-07
1.5357e-07
2.32336e-06
7.67789e-07
2.95402e-06
8.76744e-06
8.76752e-06
2.95468e-06
7.67617e-07
1.96901e-07
2.32319e-06
1.53563e-07
2.32402e-06
1.53563e-07
7.6729e-07
2.9543e-06
8.76771e-06
8.76757e-06
2.95402e-06
7.67624e-07
1.9696e-07
1.53569e-07
2.32336e-06
1.53569e-07
2.32416e-06
7.67295e-07
2.95425e-06
8.76753e-06
8.7674e-06
2.95397e-06
7.67352e-07
1.53562e-07
2.32477e-06
1.96935e-07
1.53566e-07
2.32375e-06
7.67835e-07
2.95407e-06
8.76776e-06
2.95473e-06
8.76779e-06
2.95413e-06
8.76829e-06
8.76837e-06
2.95476e-06
7.67695e-07
1.96947e-07
1.53569e-07
2.32358e-06
1.5357e-07
7.67358e-07
2.32442e-06
7.67667e-07
1.96935e-07
1.53565e-07
2.32375e-06
1.53565e-07
2.32453e-06
7.67343e-07
2.9543e-06
8.76776e-06
2.954e-06
8.76768e-06
2.95431e-06
8.76838e-06
8.76824e-06
2.95408e-06
1.86212e-05
1.86231e-05
1.86224e-05
1.86243e-05
2.71197e-07
4.75171e-06
4.75361e-06
4.75192e-06
4.7538e-06
1.86231e-05
1.86213e-05
1.86243e-05
1.86225e-05
1.86217e-05
1.86231e-05
1.86228e-05
1.86249e-05
4.75322e-06
4.75463e-06
2.7055e-07
4.75248e-06
4.75422e-06
2.95395e-06
8.76798e-06
2.95415e-06
8.76813e-06
7.67133e-07
2.32432e-06
1.5357e-07
1.96956e-07
7.67465e-07
2.32342e-06
1.53569e-07
7.67277e-07
2.32471e-06
1.53582e-07
1.96991e-07
7.67608e-07
2.32466e-06
1.53581e-07
4.75433e-06
4.75204e-06
2.70513e-07
4.75421e-06
4.75179e-06
1.86199e-05
1.86218e-05
7.67329e-07
2.32492e-06
1.5357e-07
1.96937e-07
2.32391e-06
1.53573e-07
7.678e-07
2.95411e-06
8.76767e-06
8.76776e-06
2.95473e-06
7.67368e-07
1.53574e-07
2.32489e-06
1.96966e-07
1.53577e-07
2.32384e-06
7.67848e-07
2.95416e-06
8.76759e-06
2.95425e-06
8.76773e-06
7.67814e-07
1.53571e-07
2.32416e-06
1.9696e-07
7.67616e-07
1.53571e-07
2.32413e-06
2.95412e-06
8.76741e-06
2.95421e-06
8.76755e-06
4.75424e-06
4.75296e-06
2.70537e-07
4.75372e-06
4.75251e-06
1.86222e-05
1.86241e-05
7.67336e-07
1.53568e-07
2.32455e-06
1.96937e-07
7.67659e-07
1.53568e-07
2.3245e-06
2.95399e-06
8.76765e-06
2.95424e-06
8.7678e-06
2.95408e-06
8.76827e-06
2.95426e-06
8.76841e-06
1.86212e-05
1.86231e-05
1.86225e-05
1.86243e-05
1.21584e-05
1.08091e-05
2.95397e-06
3.8407e-06
1.08088e-05
3.84106e-06
1.21589e-05
2.25248e-05
6.885e-06
8.76657e-06
6.88447e-06
2.25208e-05
1.21588e-05
2.95331e-06
1.08086e-05
3.84118e-06
1.0809e-05
3.84053e-06
1.21582e-05
2.25212e-05
6.88452e-06
8.76664e-06
6.88488e-06
2.25249e-05
1.86249e-05
1.86229e-05
9.43472e-06
2.21004e-05
2.20999e-05
2.20977e-05
2.20972e-05
9.4344e-06
3.36639e-06
1.43477e-06
4.75163e-06
8.80666e-06
1.43412e-06
8.80677e-06
3.36689e-06
3.37254e-06
1.43605e-06
4.75353e-06
8.81121e-06
1.43541e-06
8.81132e-06
3.37303e-06
3.36673e-06
8.80682e-06
4.75203e-06
1.43424e-06
1.43464e-06
8.80662e-06
3.36624e-06
3.37287e-06
8.81137e-06
4.75391e-06
1.43553e-06
1.43593e-06
8.81117e-06
3.37239e-06
9.43451e-06
2.20977e-05
2.20972e-05
2.21004e-05
2.20999e-05
9.43465e-06
1.21582e-05
2.95386e-06
1.08089e-05
3.84063e-06
1.08087e-05
3.84099e-06
1.21587e-05
2.25246e-05
6.88495e-06
8.76652e-06
2.25209e-05
6.88431e-06
1.21587e-05
2.95329e-06
1.08086e-05
3.84115e-06
1.21582e-05
1.0809e-05
3.84045e-06
2.25209e-05
6.88443e-06
8.76637e-06
6.88485e-06
2.25246e-05
1.86248e-05
1.86228e-05
1.21589e-05
3.84121e-06
1.08098e-05
2.95424e-06
3.8415e-06
1.08096e-05
1.21594e-05
2.25253e-05
8.7684e-06
6.88666e-06
6.88625e-06
2.25218e-05
2.25218e-05
6.88635e-06
8.76831e-06
6.88658e-06
2.25253e-05
1.21594e-05
2.95371e-06
3.84163e-06
1.08096e-05
3.84103e-06
1.08099e-05
1.21589e-05
1.86248e-05
1.86227e-05
9.43468e-06
2.21004e-05
2.20999e-05
2.20977e-05
2.20973e-05
9.43452e-06
3.36637e-06
1.43476e-06
8.80666e-06
4.75161e-06
3.36686e-06
1.43411e-06
8.80677e-06
3.37252e-06
1.43605e-06
8.81121e-06
4.75352e-06
3.373e-06
1.4354e-06
8.81132e-06
9.43443e-06
2.20977e-05
2.20973e-05
9.43455e-06
2.21005e-05
2.21e-05
3.36671e-06
8.80682e-06
4.75201e-06
1.43431e-06
1.43463e-06
8.80663e-06
3.36645e-06
3.37285e-06
8.81137e-06
4.7539e-06
1.43562e-06
1.43592e-06
8.81118e-06
3.37258e-06
1.21595e-05
1.08094e-05
3.84203e-06
2.95444e-06
1.08091e-05
3.84235e-06
1.216e-05
2.25265e-05
8.76806e-06
6.88677e-06
6.88632e-06
2.2523e-05
2.25231e-05
6.88644e-06
8.76797e-06
6.88668e-06
2.25265e-05
1.216e-05
2.95388e-06
1.08091e-05
3.84253e-06
1.08094e-05
3.84189e-06
1.21596e-05
1.21589e-05
1.08089e-05
2.95335e-06
3.84092e-06
1.21584e-05
1.08092e-05
3.84051e-06
2.25212e-05
6.88438e-06
8.76651e-06
2.25246e-05
6.88481e-06
1.21584e-05
2.95387e-06
1.0809e-05
3.84061e-06
1.21587e-05
1.08088e-05
3.84098e-06
2.25249e-05
6.88477e-06
8.76666e-06
2.25212e-05
6.88436e-06
1.216e-05
1.08093e-05
3.84216e-06
2.9538e-06
1.21595e-05
1.08096e-05
3.84182e-06
2.25231e-05
8.76798e-06
6.88642e-06
6.88669e-06
2.25266e-05
2.25265e-05
6.88664e-06
8.76805e-06
2.2523e-05
6.88633e-06
1.21595e-05
2.95432e-06
1.08094e-05
3.84189e-06
1.08093e-05
3.84224e-06
1.216e-05
9.43415e-06
2.20997e-05
2.21001e-05
2.20969e-05
2.20974e-05
9.43386e-06
3.3723e-06
1.43618e-06
4.75411e-06
8.81143e-06
8.81153e-06
1.43553e-06
3.37278e-06
3.36609e-06
1.43466e-06
4.75183e-06
8.80686e-06
1.434e-06
8.80696e-06
3.36658e-06
3.37262e-06
8.81159e-06
4.7545e-06
1.43564e-06
8.8114e-06
1.43605e-06
3.37215e-06
3.36642e-06
8.807e-06
4.75226e-06
1.43411e-06
1.43452e-06
8.80682e-06
3.36595e-06
9.43394e-06
2.20969e-05
2.20974e-05
2.20997e-05
2.21001e-05
9.43405e-06
1.8622e-05
1.86199e-05
1.86229e-05
1.86248e-05
9.43395e-06
2.2097e-05
2.20974e-05
9.43406e-06
2.20996e-05
2.21001e-05
3.37296e-06
1.43564e-06
4.75447e-06
8.81157e-06
1.43604e-06
8.81139e-06
3.37216e-06
3.36676e-06
1.4341e-06
4.75217e-06
8.80696e-06
8.80678e-06
1.43451e-06
3.36596e-06
3.37232e-06
8.81137e-06
1.43593e-06
4.75409e-06
1.43552e-06
3.3728e-06
8.81154e-06
3.36612e-06
8.80677e-06
1.4344e-06
4.75171e-06
3.36659e-06
8.80694e-06
1.43399e-06
9.434e-06
2.20996e-05
2.21e-05
2.20969e-05
2.20973e-05
9.43388e-06
1.86199e-05
1.86219e-05
1.21592e-05
3.8418e-06
1.08096e-05
2.9545e-06
3.84213e-06
1.08094e-05
1.21598e-05
2.25252e-05
8.76768e-06
6.88604e-06
6.88561e-06
2.25217e-05
2.25217e-05
6.8857e-06
8.76759e-06
6.88595e-06
2.25252e-05
1.21597e-05
2.95394e-06
3.8423e-06
1.08093e-05
3.84167e-06
1.08097e-05
1.21593e-05
1.21596e-05
1.08095e-05
3.84167e-06
2.95446e-06
1.08093e-05
3.842e-06
1.21601e-05
2.25254e-05
8.76751e-06
6.88432e-06
6.88387e-06
2.2522e-05
2.2522e-05
6.88396e-06
8.76742e-06
6.88423e-06
2.25254e-05
1.21601e-05
2.9539e-06
1.08092e-05
3.84217e-06
1.08096e-05
3.84154e-06
1.21596e-05
1.21597e-05
3.84194e-06
1.08095e-05
2.95388e-06
1.21593e-05
3.84161e-06
1.08097e-05
2.25217e-05
8.7676e-06
6.8857e-06
6.88595e-06
2.25253e-05
2.25252e-05
6.88589e-06
8.76767e-06
2.25217e-05
6.88561e-06
1.21593e-05
2.95444e-06
3.84168e-06
1.08096e-05
3.84204e-06
1.08094e-05
1.21597e-05
1.21601e-05
1.08093e-05
3.84181e-06
2.95383e-06
1.21596e-05
1.08095e-05
3.84147e-06
2.25219e-05
8.76742e-06
6.88396e-06
6.88423e-06
2.25254e-05
2.25254e-05
6.88416e-06
8.7675e-06
2.25219e-05
6.88386e-06
1.21596e-05
2.9544e-06
1.08095e-05
3.84155e-06
1.08092e-05
3.8419e-06
1.216e-05
1.21593e-05
1.08097e-05
2.95451e-06
3.8415e-06
3.84189e-06
1.08095e-05
1.21599e-05
2.25257e-05
6.88446e-06
8.76779e-06
6.88402e-06
2.25222e-05
1.21599e-05
2.95393e-06
3.84209e-06
1.08094e-05
3.84139e-06
1.08098e-05
1.21594e-05
2.25223e-05
6.88411e-06
8.76771e-06
6.88437e-06
2.25257e-05
1.21586e-05
3.84144e-06
1.08099e-05
2.95453e-06
3.84186e-06
1.08097e-05
1.21591e-05
2.25243e-05
8.76836e-06
6.88656e-06
6.88595e-06
2.25205e-05
2.25205e-05
6.88602e-06
8.76826e-06
6.88646e-06
2.25243e-05
1.21591e-05
2.95402e-06
3.84207e-06
1.08096e-05
3.84135e-06
1.081e-05
1.21586e-05
1.21598e-05
1.08095e-05
2.95386e-06
3.84171e-06
1.21593e-05
3.84126e-06
1.08097e-05
2.25223e-05
6.88412e-06
8.76765e-06
6.88437e-06
2.25258e-05
1.21593e-05
2.95444e-06
3.8413e-06
1.08096e-05
3.84171e-06
1.08094e-05
1.21597e-05
2.25257e-05
6.88429e-06
8.76775e-06
2.25222e-05
6.88402e-06
1.21591e-05
3.84166e-06
1.08097e-05
2.95394e-06
1.21586e-05
3.84121e-06
1.08099e-05
2.25206e-05
8.76827e-06
6.88604e-06
6.88647e-06
2.25244e-05
2.25243e-05
6.88642e-06
8.76835e-06
2.25205e-05
6.88594e-06
1.21586e-05
2.95446e-06
3.84128e-06
1.08099e-05
3.8417e-06
1.08096e-05
1.2159e-05
1.86232e-05
1.86212e-05
1.86244e-05
1.86225e-05
9.43444e-06
2.20978e-05
2.20973e-05
9.43458e-06
2.21004e-05
2.21e-05
3.36703e-06
1.43424e-06
4.75201e-06
8.80681e-06
3.36621e-06
1.43464e-06
8.80661e-06
3.37317e-06
1.43553e-06
4.75389e-06
8.81136e-06
3.37236e-06
1.43593e-06
8.81116e-06
3.36639e-06
8.80658e-06
1.43452e-06
4.75161e-06
3.36688e-06
1.43412e-06
8.80677e-06
3.37254e-06
8.81113e-06
1.43581e-06
4.75351e-06
3.37302e-06
1.43541e-06
8.81132e-06
9.43448e-06
2.21005e-05
2.21e-05
9.43433e-06
2.20977e-05
2.20972e-05
1.86212e-05
1.86231e-05
1.86224e-05
1.86244e-05
1.86234e-05
1.86212e-05
1.8625e-05
1.8623e-05
9.43357e-06
2.20997e-05
2.21e-05
2.2097e-05
2.20969e-05
9.43326e-06
3.36782e-06
1.43525e-06
4.75249e-06
8.80875e-06
8.80813e-06
1.43453e-06
3.369e-06
3.37267e-06
1.43646e-06
4.7542e-06
8.8106e-06
8.8114e-06
1.43599e-06
3.3729e-06
3.36807e-06
8.80785e-06
4.75281e-06
1.4346e-06
8.80772e-06
3.36753e-06
1.435e-06
3.37316e-06
8.81183e-06
4.75457e-06
1.43612e-06
8.8115e-06
3.3727e-06
1.43654e-06
9.43327e-06
2.20979e-05
2.20966e-05
2.21e-05
2.20995e-05
9.43359e-06
1.21594e-05
2.95436e-06
1.08094e-05
3.84178e-06
1.08092e-05
3.8421e-06
1.21599e-05
2.25266e-05
6.88663e-06
8.76808e-06
2.25231e-05
6.88635e-06
1.21599e-05
2.95377e-06
1.08093e-05
3.84202e-06
1.08095e-05
1.21595e-05
3.84166e-06
2.25232e-05
6.88648e-06
8.768e-06
6.88673e-06
2.25267e-05
9.43419e-06
2.20996e-05
2.21001e-05
2.20969e-05
2.20973e-05
9.43403e-06
3.37232e-06
1.43592e-06
8.81134e-06
4.75402e-06
8.81151e-06
3.3728e-06
1.43552e-06
3.36611e-06
1.43439e-06
8.80673e-06
4.75164e-06
1.43399e-06
3.36659e-06
8.8069e-06
9.43398e-06
2.20969e-05
2.20974e-05
2.20996e-05
9.43409e-06
2.21001e-05
3.37265e-06
8.81153e-06
4.7544e-06
1.43572e-06
8.81136e-06
1.43604e-06
3.37238e-06
3.36645e-06
8.80694e-06
4.75211e-06
1.43419e-06
1.43451e-06
8.80676e-06
3.36619e-06
1.86219e-05
1.86198e-05
1.21593e-05
1.08098e-05
3.84146e-06
2.9545e-06
1.08096e-05
3.84187e-06
1.21598e-05
2.25257e-05
8.76773e-06
6.88515e-06
6.88456e-06
2.2522e-05
2.2522e-05
6.88465e-06
8.76764e-06
6.88506e-06
2.25257e-05
1.21598e-05
2.95399e-06
1.08096e-05
3.84212e-06
1.08099e-05
3.84139e-06
1.21593e-05
1.21591e-05
2.95444e-06
3.84163e-06
1.08094e-05
3.84187e-06
1.08094e-05
1.21596e-05
2.25253e-05
6.8859e-06
8.7677e-06
6.88563e-06
2.25218e-05
1.21596e-05
2.95384e-06
3.8418e-06
1.08095e-05
3.84145e-06
1.21592e-05
1.08097e-05
2.25219e-05
6.88574e-06
8.76762e-06
6.88599e-06
2.25254e-05
1.21594e-05
2.9544e-06
1.08093e-05
3.84151e-06
1.08092e-05
3.84175e-06
1.21599e-05
2.25255e-05
6.88416e-06
8.76751e-06
2.2522e-05
6.88387e-06
1.216e-05
2.9538e-06
1.08093e-05
3.84167e-06
1.21595e-05
1.08095e-05
3.84132e-06
2.25221e-05
6.884e-06
8.76743e-06
6.88425e-06
2.25255e-05
9.43525e-06
2.21008e-05
2.2101e-05
2.20981e-05
2.20983e-05
9.43494e-06
3.3727e-06
1.43612e-06
4.75368e-06
8.81114e-06
8.8113e-06
1.43548e-06
3.37317e-06
3.36659e-06
1.43498e-06
4.75244e-06
8.8072e-06
1.43433e-06
8.80724e-06
3.3671e-06
3.37301e-06
8.81134e-06
4.75411e-06
1.43559e-06
8.81114e-06
1.43599e-06
3.37254e-06
3.36696e-06
8.80726e-06
4.75283e-06
1.43445e-06
1.43486e-06
8.8071e-06
3.36645e-06
9.43507e-06
2.20979e-05
2.20983e-05
2.21008e-05
2.2101e-05
9.43522e-06
1.86241e-05
1.86222e-05
1.21592e-05
2.95442e-06
3.84123e-06
1.08096e-05
3.8416e-06
1.08094e-05
1.21597e-05
2.25258e-05
6.8843e-06
8.76776e-06
6.88404e-06
2.25223e-05
1.21597e-05
2.95381e-06
3.8415e-06
1.08095e-05
3.84109e-06
1.21592e-05
1.08097e-05
2.25224e-05
6.88416e-06
8.76769e-06
6.8844e-06
2.25258e-05
1.21585e-05
2.95445e-06
3.84125e-06
1.08098e-05
3.84163e-06
1.08096e-05
1.2159e-05
2.25244e-05
6.88645e-06
8.76838e-06
2.25206e-05
6.886e-06
1.2159e-05
2.95391e-06
3.84149e-06
1.08097e-05
1.21585e-05
3.84109e-06
1.08099e-05
2.25207e-05
6.88608e-06
8.76829e-06
6.88653e-06
2.25244e-05
1.86231e-05
1.86212e-05
1.86244e-05
1.86224e-05
1.26559e-07
1.26557e-07
1.37385e-07
1.26564e-07
1.26561e-07
1.21675e-07
1.21676e-07
1.22464e-06
5.17503e-07
5.17686e-07
2.70551e-07
5.16767e-07
5.16946e-07
1.2254e-06
1.26558e-07
1.26557e-07
1.37381e-07
1.2656e-07
1.2656e-07
1.21675e-07
1.21675e-07
1.22463e-06
5.17503e-07
5.1768e-07
2.70546e-07
1.2254e-06
5.1677e-07
5.16939e-07
1.22452e-06
5.17672e-07
5.17465e-07
2.70506e-07
5.16719e-07
5.1693e-07
1.22529e-06
1.22541e-06
2.71168e-07
5.16977e-07
5.16762e-07
5.1762e-07
5.17408e-07
1.2244e-06
1.22552e-06
2.7119e-07
5.1682e-07
5.16991e-07
1.22452e-06
5.17455e-07
5.17632e-07
1.22477e-06
5.17563e-07
5.17868e-07
2.70545e-07
5.16786e-07
5.17181e-07
1.22551e-06
1.22452e-06
5.17571e-07
5.17358e-07
2.70502e-07
5.16717e-07
1.22529e-06
5.1693e-07
1.2247e-06
5.17683e-07
5.17545e-07
2.70538e-07
5.16811e-07
5.16946e-07
1.22546e-06
1.26563e-07
1.2656e-07
1.3739e-07
1.26568e-07
1.26565e-07
1.21679e-07
1.2168e-07
1.26563e-07
1.26569e-07
1.37401e-07
1.26576e-07
1.26567e-07
1.2168e-07
1.21681e-07
1.26563e-07
1.26561e-07
1.37391e-07
1.26567e-07
1.26566e-07
1.21679e-07
1.2168e-07
1.37385e-07
1.26559e-07
1.26557e-07
1.26563e-07
1.2656e-07
1.2168e-07
1.21679e-07
1.37388e-07
1.26564e-07
1.26562e-07
1.26565e-07
1.26562e-07
1.21683e-07
1.21683e-07
1.37398e-07
1.26565e-07
1.26569e-07
1.26574e-07
1.26567e-07
1.21685e-07
1.21685e-07
1.37389e-07
1.26565e-07
1.26562e-07
1.26565e-07
1.26563e-07
1.21684e-07
1.21683e-07
3.42753e-07
1.01529e-06
2.87794e-07
7.67696e-07
1.01587e-06
2.8817e-07
3.42025e-07
4.72345e-07
7.12447e-07
2.32308e-06
1.59775e-06
7.11537e-07
1.59663e-06
4.7323e-07
4.73227e-07
1.59674e-06
2.32414e-06
7.11598e-07
7.12386e-07
1.59764e-06
4.72338e-07
3.42042e-07
7.67221e-07
1.01597e-06
2.8818e-07
1.0152e-06
2.8779e-07
3.4273e-07
3.42783e-07
2.8782e-07
7.67781e-07
1.01527e-06
2.88197e-07
1.01584e-06
3.42058e-07
4.72391e-07
7.12629e-07
1.59751e-06
2.32345e-06
1.59642e-06
4.73255e-07
7.11725e-07
3.42081e-07
7.67299e-07
2.88212e-07
1.01594e-06
2.87821e-07
1.01516e-06
3.42762e-07
4.73256e-07
1.59654e-06
2.32452e-06
7.1179e-07
1.5974e-06
4.72388e-07
7.12569e-07
1.22528e-06
2.71212e-07
5.16817e-07
5.16994e-07
5.17454e-07
5.17634e-07
1.22453e-06
1.26569e-07
1.26566e-07
1.37391e-07
1.26568e-07
1.26566e-07
1.21679e-07
1.2168e-07
1.26573e-07
1.26573e-07
1.37398e-07
1.26572e-07
1.26572e-07
1.21682e-07
1.21682e-07
1.26569e-07
1.26567e-07
1.37393e-07
1.26569e-07
1.26567e-07
1.2168e-07
1.2168e-07
3.42752e-07
7.67673e-07
1.01582e-06
2.87805e-07
1.01584e-06
2.8817e-07
3.42022e-07
4.72343e-07
7.1244e-07
1.59776e-06
2.32307e-06
4.73227e-07
7.11535e-07
1.59664e-06
3.42041e-07
7.67204e-07
1.01594e-06
2.88175e-07
3.42731e-07
1.01517e-06
2.87787e-07
4.73225e-07
1.59736e-06
2.32413e-06
7.11594e-07
7.12381e-07
1.59766e-06
4.72366e-07
3.42771e-07
7.67755e-07
2.87821e-07
1.0152e-06
2.88198e-07
1.01578e-06
3.42043e-07
4.72369e-07
7.12617e-07
1.59752e-06
2.32344e-06
4.73249e-07
7.1171e-07
1.59642e-06
3.42064e-07
7.67271e-07
2.88209e-07
1.01588e-06
3.42748e-07
2.8782e-07
1.01511e-06
4.73246e-07
1.59653e-06
2.32446e-06
7.11774e-07
7.12557e-07
1.5974e-06
4.72364e-07
1.22525e-06
2.7121e-07
5.16817e-07
5.16989e-07
5.17457e-07
5.17632e-07
1.22532e-06
3.42674e-07
2.87778e-07
7.67562e-07
1.01493e-06
1.01548e-06
2.88156e-07
3.41953e-07
4.7229e-07
7.12641e-07
1.59738e-06
2.32343e-06
1.59631e-06
4.7315e-07
7.11796e-07
3.41962e-07
7.67074e-07
1.01555e-06
2.88164e-07
1.0148e-06
2.87773e-07
3.42641e-07
4.73168e-07
1.59647e-06
2.32463e-06
7.12024e-07
1.59734e-06
4.72308e-07
7.12759e-07
3.42786e-07
1.01544e-06
2.8781e-07
7.67709e-07
1.01601e-06
2.88192e-07
3.42059e-07
4.72515e-07
7.12905e-07
2.3238e-06
1.59817e-06
1.59706e-06
7.11999e-07
4.73385e-07
4.73371e-07
1.59718e-06
2.32482e-06
7.12055e-07
1.59806e-06
4.72483e-07
7.12842e-07
3.42079e-07
7.67236e-07
1.01611e-06
2.88202e-07
1.01535e-06
2.8781e-07
3.42763e-07
3.41967e-07
2.88153e-07
7.67081e-07
1.01539e-06
3.42651e-07
1.01482e-06
2.87769e-07
4.73208e-07
7.11895e-07
1.59639e-06
2.32447e-06
1.59729e-06
4.72317e-07
7.12622e-07
3.42636e-07
7.67556e-07
1.01489e-06
2.8778e-07
1.01547e-06
2.88159e-07
3.41941e-07
4.72319e-07
1.59723e-06
7.12714e-07
2.32345e-06
4.73207e-07
1.59631e-06
7.11802e-07
3.4208e-07
1.0159e-06
2.88188e-07
7.67228e-07
3.42764e-07
1.01533e-06
2.87806e-07
4.73398e-07
7.12051e-07
2.32482e-06
1.59716e-06
1.59805e-06
7.12835e-07
4.72502e-07
4.72499e-07
1.59793e-06
7.12776e-07
2.3238e-06
4.73368e-07
1.59705e-06
7.11994e-07
3.42755e-07
7.67703e-07
1.01541e-06
2.87816e-07
1.01599e-06
2.88197e-07
3.4206e-07
1.22517e-06
2.71172e-07
5.16978e-07
5.16766e-07
5.17412e-07
5.17621e-07
1.2244e-06
1.22452e-06
2.70496e-07
5.17571e-07
5.17361e-07
5.1693e-07
1.2253e-06
5.16716e-07
3.42746e-07
2.87796e-07
1.01529e-06
7.67704e-07
2.88171e-07
1.01587e-06
3.4202e-07
4.72374e-07
7.12572e-07
2.32325e-06
1.59759e-06
7.11667e-07
1.59647e-06
4.73248e-07
4.73231e-07
1.59658e-06
2.32428e-06
7.11732e-07
7.12517e-07
1.59747e-06
4.72344e-07
3.42044e-07
7.67232e-07
2.88179e-07
1.01597e-06
2.8779e-07
1.0152e-06
3.42726e-07
3.42042e-07
1.01577e-06
2.88168e-07
7.67215e-07
3.4273e-07
1.0152e-06
2.87786e-07
4.73258e-07
7.11595e-07
2.32414e-06
1.59675e-06
4.72335e-07
7.12384e-07
1.59765e-06
4.72357e-07
1.59753e-06
7.12323e-07
2.32308e-06