/*--------------------------------*- C++ -*----------------------------------*\
| =========                 |                                                 |
| \\      /  F ield         | OpenFOAM: The Open Source CFD Toolbox           |
|  \\    /   O peration     | Version:  v1912                                 |
|   \\  /    A nd           | Website:  www.openfoam.com                      |
|    \\/     M anipulation  |                                                 |
\*---------------------------------------------------------------------------*/
FoamFile
{
    version     2.0;
    format      ascii;
    class       volScalarField;
    location    "80";
    object      k;
}
// * * * * * * * * * * * * * * * * * * * * * * * * * * * * * * * * * * * * * //

dimensions      [0 2 -2 0 0 0 0];


internalField   nonuniform List<scalar> 
57566
(
7.00205e-05
2.23373e-05
1.60297e-05
1.56211e-05
3.83131e-05
1.66368e-05
5.40144e-05
5.40271e-05
7.00146e-05
7.00192e-05
1.66423e-05
5.40157e-05
5.40342e-05
4.30635e-05
6.92865e-05
4.30766e-05
6.92962e-05
2.23377e-05
1.60297e-05
3.83149e-05
1.56215e-05
2.23414e-05
1.60304e-05
3.83234e-05
1.56217e-05
7.00201e-05
1.66417e-05
5.40346e-05
5.40175e-05
7.00152e-05
4.30784e-05
6.92886e-05
2.23336e-05
1.60298e-05
1.56215e-05
3.83074e-05
4.30708e-05
6.92955e-05
2.23412e-05
1.60307e-05
3.83224e-05
1.56219e-05
4.30787e-05
6.92876e-05
2.23382e-05
1.603e-05
1.56215e-05
3.83137e-05
2.23321e-05
1.60304e-05
1.56215e-05
3.83059e-05
4.30747e-05
6.92901e-05
2.23405e-05
1.60294e-05
3.83141e-05
1.56211e-05
4.30775e-05
6.92933e-05
2.23367e-05
1.60306e-05
1.56215e-05
3.83117e-05
4.30756e-05
6.92892e-05
1.66353e-05
5.40237e-05
5.4024e-05
7.00226e-05
7.00148e-05
1.66417e-05
5.40245e-05
5.40241e-05
7.00174e-05
2.23347e-05
1.6031e-05
1.56218e-05
3.83093e-05
4.30831e-05
6.92907e-05
4.30833e-05
6.92957e-05
2.23416e-05
1.603e-05
1.56212e-05
3.83188e-05
2.23393e-05
1.60312e-05
1.56218e-05
3.83151e-05
4.30832e-05
6.92898e-05
4.30837e-05
6.92947e-05
7.00198e-05
7.00215e-05
1.66429e-05
5.40147e-05
5.40257e-05
7.00146e-05
7.00163e-05
7.00161e-05
8.31764e-05
7.28512e-05
7.28456e-05
7.28461e-05
7.28405e-05
8.31791e-05
4.89203e-05
6.76324e-05
5.4015e-05
3.10759e-05
3.10812e-05
6.76317e-05
4.89195e-05
4.89835e-05
6.76437e-05
5.40274e-05
3.10923e-05
3.10975e-05
6.7643e-05
4.89826e-05
7.00188e-05
7.00234e-05
8.31746e-05
7.28464e-05
7.28403e-05
8.31717e-05
7.28512e-05
7.28456e-05
4.89215e-05
6.76325e-05
3.10799e-05
5.40148e-05
4.89232e-05
6.76331e-05
3.10765e-05
4.89804e-05
6.76453e-05
3.10979e-05
5.40342e-05
4.89837e-05
6.76457e-05
3.10932e-05
6.99527e-05
6.9753e-05
5.0692e-05
4.30631e-05
6.99515e-05
6.97539e-05
5.06917e-05
7.11776e-05
6.96853e-05
6.92867e-05
7.11706e-05
6.96886e-05
6.99597e-05
6.9755e-05
5.07209e-05
4.30759e-05
6.99587e-05
6.97558e-05
5.07209e-05
7.11844e-05
6.97119e-05
6.92965e-05
7.11779e-05
6.97156e-05
7.0024e-05
8.31764e-05
7.28415e-05
7.28463e-05
8.31736e-05
7.28464e-05
7.28513e-05
4.898e-05
6.76447e-05
3.10962e-05
5.40346e-05
3.10929e-05
4.89822e-05
6.76453e-05
4.89181e-05
6.76331e-05
3.10782e-05
5.40172e-05
4.89202e-05
6.76336e-05
3.10747e-05
7.00196e-05
6.99549e-05
4.30808e-05
6.97574e-05
5.07073e-05
6.97564e-05
5.07091e-05
6.99558e-05
7.11721e-05
6.96875e-05
6.92884e-05
6.96847e-05
7.1179e-05
6.99566e-05
5.07047e-05
6.97565e-05
4.30705e-05
6.99555e-05
5.07044e-05
6.97573e-05
7.11818e-05
6.97089e-05
6.92957e-05
7.11754e-05
6.97125e-05
6.99543e-05
6.97561e-05
5.07074e-05
4.30782e-05
6.99531e-05
6.97566e-05
5.07066e-05
7.11775e-05
6.96824e-05
6.92877e-05
7.11703e-05
6.96854e-05
6.9957e-05
4.30772e-05
6.97558e-05
5.07141e-05
6.97547e-05
5.07152e-05
6.99578e-05
7.11741e-05
6.96871e-05
6.92899e-05
6.96836e-05
7.11804e-05
6.9959e-05
5.0717e-05
6.97554e-05
4.30765e-05
6.99581e-05
5.0717e-05
6.97563e-05
7.11826e-05
6.9705e-05
6.92935e-05
7.1176e-05
6.97089e-05
6.99563e-05
6.97545e-05
5.07154e-05
4.30748e-05
6.99552e-05
6.97551e-05
5.07143e-05
7.11788e-05
6.96813e-05
6.92893e-05
7.11722e-05
6.9685e-05
8.31793e-05
7.28464e-05
7.28524e-05
7.28412e-05
7.28472e-05
8.31821e-05
4.89825e-05
6.76424e-05
5.40244e-05
3.10891e-05
6.76417e-05
3.10947e-05
4.89816e-05
4.89232e-05
6.7635e-05
5.40245e-05
3.10779e-05
3.10829e-05
6.76343e-05
4.89222e-05
7.00186e-05
7.00193e-05
8.31815e-05
7.28397e-05
7.28458e-05
8.31782e-05
7.28449e-05
7.28509e-05
4.89849e-05
6.76409e-05
3.10928e-05
5.4024e-05
3.10899e-05
4.89862e-05
6.76417e-05
4.89255e-05
6.76336e-05
3.10813e-05
5.40241e-05
4.89268e-05
6.76343e-05
3.10786e-05
7.00215e-05
6.99574e-05
4.30853e-05
5.07121e-05
6.97583e-05
5.07129e-05
6.97574e-05
6.99582e-05
7.11743e-05
6.96864e-05
6.92905e-05
6.96828e-05
7.11806e-05
6.99588e-05
4.30859e-05
5.07211e-05
6.97587e-05
5.07221e-05
6.97578e-05
6.99596e-05
7.11766e-05
6.97089e-05
6.92955e-05
6.97053e-05
7.11828e-05
6.99567e-05
5.07145e-05
6.9757e-05
4.30827e-05
6.99556e-05
5.07139e-05
6.97575e-05
7.11791e-05
6.96805e-05
6.929e-05
7.11725e-05
6.96842e-05
6.99581e-05
5.072e-05
6.97575e-05
4.3083e-05
6.9957e-05
5.07197e-05
6.9758e-05
7.11813e-05
6.97029e-05
6.92949e-05
7.11748e-05
6.97067e-05
7.00158e-05
7.00175e-05
8.31785e-05
7.28446e-05
7.2839e-05
8.31753e-05
7.28497e-05
7.28441e-05
4.89228e-05
6.76309e-05
3.10793e-05
5.40146e-05
4.89241e-05
3.10765e-05
6.76316e-05
4.8986e-05
6.76422e-05
3.10956e-05
5.40256e-05
4.89873e-05
3.10928e-05
6.76429e-05
7.00187e-05
7.00204e-05
1.59071e-05
1.6158e-05
1.61584e-05
1.65135e-05
1.59074e-05
1.61582e-05
1.61584e-05
1.65135e-05
1.59066e-05
1.61576e-05
1.6158e-05
1.65132e-05
1.59074e-05
1.61582e-05
1.61587e-05
1.65136e-05
1.59071e-05
1.6158e-05
1.61584e-05
1.65134e-05
1.59074e-05
1.61582e-05
1.61584e-05
1.65134e-05
1.72263e-05
2.23471e-05
1.63272e-05
2.56542e-05
1.63306e-05
2.56672e-05
1.72181e-05
1.89798e-05
3.19049e-05
3.83241e-05
2.23947e-05
2.24066e-05
3.19174e-05
1.8968e-05
2.94177e-05
1.66436e-05
2.02486e-05
2.02512e-05
2.02612e-05
2.02639e-05
2.94015e-05
2.94011e-05
1.66354e-05
2.02618e-05
2.02646e-05
2.94193e-05
2.02494e-05
2.02516e-05
1.72154e-05
2.5654e-05
1.63293e-05
2.23292e-05
1.72235e-05
2.56427e-05
1.63257e-05
1.89644e-05
3.19129e-05
2.24068e-05
3.83042e-05
2.23944e-05
1.89763e-05
3.18986e-05
1.72186e-05
2.56653e-05
1.63302e-05
2.2333e-05
1.72267e-05
2.56542e-05
1.63267e-05
1.89691e-05
3.19264e-05
2.24116e-05
3.83131e-05
1.8981e-05
3.19121e-05
2.24001e-05
2.93993e-05
1.66348e-05
2.02634e-05
2.02609e-05
2.02507e-05
2.94175e-05
2.02482e-05
1.72258e-05
2.2343e-05
1.63271e-05
2.56683e-05
1.63306e-05
2.56802e-05
1.7218e-05
1.8979e-05
3.19034e-05
3.8319e-05
2.23951e-05
3.19157e-05
1.89671e-05
2.24076e-05
1.72174e-05
2.56603e-05
1.63305e-05
2.23325e-05
1.72256e-05
2.56485e-05
1.6327e-05
1.89667e-05
3.19069e-05
2.24122e-05
3.83115e-05
2.23992e-05
1.89792e-05
3.18876e-05
1.7219e-05
1.63306e-05
2.56737e-05
2.23336e-05
1.72258e-05
1.63273e-05
2.56667e-05
1.89681e-05
3.19132e-05
2.24049e-05
3.83079e-05
1.89776e-05
3.19033e-05
2.23958e-05
1.72262e-05
2.23413e-05
1.63263e-05
2.56712e-05
1.63298e-05
2.5683e-05
1.72184e-05
1.89796e-05
3.19062e-05
3.83172e-05
2.23938e-05
2.24058e-05
3.19186e-05
1.89677e-05
1.72173e-05
2.56626e-05
1.63296e-05
2.23318e-05
1.72256e-05
2.5651e-05
1.63261e-05
1.89667e-05
3.19216e-05
2.24044e-05
3.83041e-05
1.89784e-05
2.23927e-05
3.1907e-05
1.72194e-05
1.63299e-05
2.56766e-05
2.23321e-05
1.72262e-05
1.63266e-05
2.56696e-05
1.89688e-05
3.1916e-05
2.24031e-05
3.83061e-05
1.89782e-05
3.19061e-05
2.23941e-05
2.94179e-05
1.66422e-05
2.02498e-05
2.02489e-05
2.02615e-05
2.02626e-05
2.94018e-05
2.94025e-05
1.66348e-05
2.02595e-05
2.02585e-05
2.02503e-05
2.94116e-05
2.02495e-05
1.72274e-05
2.23444e-05
1.63274e-05
2.56741e-05
1.63309e-05
2.5686e-05
1.72195e-05
1.89818e-05
3.19112e-05
3.83206e-05
2.2397e-05
2.24091e-05
3.19236e-05
1.89697e-05
1.72188e-05
1.63308e-05
2.56606e-05
2.23367e-05
1.72258e-05
1.63275e-05
2.56542e-05
1.89691e-05
3.19147e-05
2.24041e-05
3.83134e-05
1.89786e-05
2.23952e-05
3.19047e-05
1.72205e-05
1.63309e-05
2.56795e-05
2.23348e-05
1.72274e-05
1.63276e-05
2.56725e-05
1.89708e-05
3.19209e-05
2.24067e-05
3.83095e-05
1.89803e-05
3.19111e-05
2.23976e-05
2.94023e-05
1.66358e-05
2.02582e-05
2.02608e-05
2.94115e-05
2.02492e-05
2.02518e-05
7.0016e-05
7.00169e-05
1.66427e-05
5.40467e-05
5.40568e-05
4.31031e-05
6.929e-05
4.31145e-05
2.23523e-05
1.60253e-05
3.83374e-05
1.56132e-05
2.23555e-05
1.56134e-05
4.31119e-05
6.92964e-05
2.23563e-05
1.60256e-05
3.83405e-05
1.56132e-05
4.31154e-05
6.92906e-05
2.23569e-05
1.60248e-05
1.5613e-05
3.8337e-05
7.00138e-05
1.66419e-05
5.40462e-05
5.40475e-05
7.00163e-05
2.23557e-05
1.60254e-05
1.56128e-05
3.83381e-05
2.23557e-05
1.56133e-05
4.31134e-05
6.9293e-05
4.3117e-05
7.00209e-05
7.00218e-05
8.31882e-05
7.28441e-05
7.28396e-05
8.31841e-05
7.285e-05
7.28455e-05
4.897e-05
6.76413e-05
3.11121e-05
5.40457e-05
4.89722e-05
6.76417e-05
3.11079e-05
4.90207e-05
6.76484e-05
3.11299e-05
5.40553e-05
4.90228e-05
6.76489e-05
3.11254e-05
6.99518e-05
6.97488e-05
5.0731e-05
4.30998e-05
6.995e-05
6.97491e-05
5.07283e-05
7.11784e-05
6.97074e-05
6.92902e-05
7.11705e-05
6.97074e-05
6.99576e-05
6.97507e-05
5.07511e-05
4.3111e-05
6.99561e-05
6.9751e-05
5.07486e-05
6.99556e-05
5.07427e-05
6.97519e-05
4.31086e-05
6.99539e-05
5.07403e-05
6.97523e-05
7.11819e-05
6.97281e-05
6.92968e-05
7.11746e-05
6.97295e-05
6.99546e-05
6.97517e-05
5.07406e-05
4.31121e-05
6.99528e-05
6.97522e-05
5.07374e-05
7.11799e-05
6.97072e-05
6.9291e-05
7.1172e-05
6.97077e-05
7.00191e-05
8.32022e-05
7.28407e-05
7.28467e-05
8.31988e-05
7.28467e-05
7.28527e-05
4.90139e-05
6.76459e-05
3.11207e-05
5.40443e-05
3.11162e-05
4.90157e-05
6.76463e-05
4.89544e-05
6.76386e-05
3.11091e-05
5.40463e-05
4.89561e-05
6.7639e-05
3.11049e-05
7.00212e-05
6.99551e-05
5.07411e-05
6.97505e-05
4.31098e-05
6.99534e-05
5.07384e-05
6.97508e-05
7.11822e-05
6.97075e-05
6.92934e-05
7.11748e-05
6.97086e-05
6.99546e-05
5.07415e-05
6.97518e-05
4.31138e-05
6.99528e-05
5.07388e-05
6.97523e-05
1.58972e-05
1.61472e-05
1.61475e-05
1.65022e-05
1.61478e-05
1.65026e-05
1.58976e-05
1.61477e-05
1.61479e-05
1.65022e-05
1.6148e-05
1.65024e-05
2.94308e-05
1.6636e-05
2.02698e-05
2.02753e-05
2.94362e-05
2.02586e-05
2.02637e-05
1.72185e-05
2.56726e-05
1.63297e-05
2.23479e-05
1.72256e-05
2.56666e-05
1.63262e-05
1.89713e-05
3.19113e-05
2.24173e-05
3.83337e-05
2.24083e-05
1.89803e-05
3.19094e-05
1.72209e-05
2.56818e-05
1.63306e-05
2.23512e-05
1.72283e-05
2.56755e-05
1.6327e-05
1.72203e-05
2.56783e-05
1.6331e-05
2.23518e-05
1.72276e-05
2.56719e-05
1.63274e-05
1.89739e-05
3.19193e-05
2.24212e-05
3.83368e-05
2.24101e-05
1.8983e-05
3.19173e-05
1.72199e-05
1.63309e-05
2.56776e-05
2.23526e-05
1.7227e-05
1.63274e-05
2.56715e-05
1.89721e-05
3.1913e-05
2.24188e-05
3.83331e-05
1.89813e-05
3.19111e-05
2.24077e-05
2.94281e-05
1.66352e-05
2.02713e-05
2.02704e-05
2.02598e-05
2.94331e-05
2.0259e-05
1.72203e-05
1.633e-05
2.56769e-05
2.23512e-05
1.72274e-05
1.63265e-05
2.56814e-05
1.89731e-05
3.1915e-05
2.24174e-05
3.83344e-05
1.89825e-05
2.24078e-05
3.19132e-05
1.7219e-05
1.63298e-05
2.56772e-05
2.23515e-05
1.72263e-05
1.63263e-05
2.56709e-05
1.58968e-05
1.60245e-05
1.6025e-05
1.66428e-05
1.58968e-05
1.60245e-05
1.60251e-05
1.66427e-05
1.60249e-05
1.6025e-05
1.60252e-05
1.60251e-05
1.66423e-05
1.66354e-05
1.6025e-05
1.60245e-05
1.60251e-05
1.60253e-05
1.60251e-05
1.60254e-05
1.66355e-05
1.6643e-05
1.60254e-05
1.60252e-05
1.66422e-05
1.60254e-05
1.60245e-05
1.60253e-05
1.66421e-05
1.60256e-05
4.31005e-05
6.929e-05
4.31053e-05
6.92907e-05
7.00184e-05
7.00233e-05
1.58972e-05
1.5897e-05
1.58973e-05
1.58968e-05
1.58973e-05
1.58972e-05
1.58974e-05
2.23495e-05
3.83328e-05
1.56125e-05
1.60247e-05
3.83249e-05
1.56129e-05
2.23557e-05
2.23501e-05
1.56126e-05
3.83388e-05
1.60254e-05
1.5613e-05
2.23564e-05
3.83311e-05
5.40381e-05
5.40498e-05
1.66369e-05
5.40373e-05
5.40492e-05
4.30999e-05
6.929e-05
4.31047e-05
6.92904e-05
7.00182e-05
7.00229e-05
4.3109e-05
6.92962e-05
6.92968e-05
4.31139e-05
1.58976e-05
1.58975e-05
1.58977e-05
2.235e-05
3.83325e-05
1.56125e-05
1.60246e-05
2.23553e-05
3.83274e-05
1.56127e-05
7.0014e-05
7.00191e-05
2.23495e-05
1.56126e-05
3.83383e-05
1.60253e-05
2.23558e-05
1.56127e-05
3.83306e-05
5.40378e-05
5.40496e-05
1.66368e-05
5.40362e-05
5.40482e-05
4.31097e-05
6.92976e-05
6.92981e-05
4.31158e-05
2.23466e-05
3.83384e-05
1.56127e-05
1.60256e-05
1.56131e-05
2.23526e-05
3.83331e-05
2.23498e-05
3.83426e-05
1.56129e-05
1.60252e-05
3.83352e-05
1.56132e-05
2.23561e-05
4.31004e-05
6.92904e-05
4.31017e-05
6.929e-05
4.31096e-05
6.92982e-05
6.92974e-05
4.31104e-05
2.235e-05
1.60253e-05
3.83313e-05
1.56128e-05
1.56129e-05
2.23465e-05
3.83367e-05
2.23532e-05
1.60251e-05
3.83351e-05
1.5613e-05
3.83391e-05
1.56131e-05
2.23497e-05
5.40594e-05
5.40405e-05
1.66353e-05
5.40586e-05
5.4037e-05
7.00131e-05
7.00181e-05
7.00231e-05
7.00186e-05
1.66419e-05
5.40573e-05
5.40367e-05
5.40565e-05
5.40365e-05
7.00179e-05
7.00132e-05
4.31107e-05
6.92951e-05
6.92955e-05
4.3117e-05
2.23496e-05
1.56128e-05
3.83357e-05
1.60252e-05
1.56131e-05
3.83281e-05
2.23559e-05
4.31099e-05
6.92919e-05
6.92923e-05
4.31161e-05
2.23528e-05
1.60246e-05
3.83248e-05
1.56125e-05
3.83291e-05
1.56128e-05
2.23493e-05
4.31107e-05
6.92955e-05
6.92948e-05
4.31109e-05
2.23529e-05
1.60251e-05
1.56129e-05
3.83281e-05
1.56129e-05
3.83321e-05
2.23494e-05
4.31096e-05
6.92923e-05
6.92917e-05
4.311e-05
2.235e-05
1.56128e-05
3.83387e-05
1.60255e-05
1.56131e-05
3.83311e-05
2.23563e-05
4.31099e-05
6.9293e-05
4.31161e-05
6.92931e-05
4.31133e-05
6.92953e-05
6.92957e-05
4.31198e-05
2.23534e-05
1.60253e-05
1.56126e-05
3.83308e-05
1.56129e-05
2.23497e-05
3.83352e-05
2.23533e-05
1.60254e-05
1.56128e-05
3.83311e-05
1.56129e-05
3.83351e-05
2.23499e-05
4.31098e-05
6.92932e-05
4.31097e-05
6.92926e-05
4.3113e-05
6.92958e-05
6.92951e-05
4.31134e-05
7.00136e-05
7.00185e-05
7.00149e-05
7.00198e-05
1.6643e-05
5.40368e-05
5.4049e-05
5.40352e-05
5.40471e-05
7.00184e-05
7.00138e-05
7.00197e-05
7.00152e-05
7.00162e-05
7.00208e-05
7.00172e-05
7.00219e-05
5.40492e-05
5.40581e-05
1.66361e-05
5.40464e-05
5.40566e-05
4.31118e-05
6.92975e-05
4.31106e-05
6.92983e-05
2.23463e-05
3.83349e-05
1.56131e-05
1.60253e-05
2.23498e-05
3.83299e-05
1.56131e-05
2.23495e-05
3.8339e-05
1.56133e-05
1.60253e-05
2.2353e-05
3.83374e-05
1.56133e-05
5.4055e-05
5.40346e-05
1.66353e-05
5.40561e-05
5.40351e-05
7.0013e-05
7.00178e-05
2.23502e-05
3.83403e-05
1.5613e-05
1.60256e-05
3.8333e-05
1.56131e-05
2.23563e-05
4.31131e-05
6.92905e-05
6.92909e-05
4.31196e-05
2.23511e-05
1.56128e-05
3.83369e-05
1.60247e-05
1.56129e-05
3.83291e-05
2.23574e-05
4.3112e-05
6.92949e-05
4.31108e-05
6.92957e-05
2.23502e-05
1.56132e-05
3.83321e-05
1.60253e-05
2.23527e-05
1.56132e-05
3.83308e-05
4.31112e-05
6.92917e-05
4.31102e-05
6.92924e-05
5.40488e-05
5.40483e-05
1.66353e-05
5.40458e-05
5.40471e-05
7.00164e-05
7.00212e-05
2.23498e-05
1.56132e-05
3.83351e-05
1.60256e-05
2.23531e-05
1.56132e-05
3.83337e-05
4.31106e-05
6.92926e-05
4.31099e-05
6.92934e-05
4.31146e-05
6.92952e-05
4.31134e-05
6.92959e-05
7.00138e-05
7.00185e-05
7.00151e-05
7.00198e-05
6.995e-05
6.97502e-05
4.31021e-05
5.07284e-05
6.97492e-05
5.07293e-05
6.9952e-05
7.11781e-05
6.97067e-05
6.92905e-05
6.9708e-05
7.11704e-05
6.99519e-05
4.30986e-05
6.97489e-05
5.07311e-05
6.97505e-05
5.07276e-05
6.99499e-05
7.11705e-05
6.97091e-05
6.92901e-05
6.97056e-05
7.11782e-05
7.00233e-05
7.00185e-05
8.31978e-05
7.28517e-05
7.28461e-05
7.28457e-05
7.28401e-05
8.31992e-05
4.89503e-05
3.11054e-05
5.40367e-05
6.76358e-05
3.10981e-05
6.76364e-05
4.89519e-05
4.90135e-05
3.11217e-05
5.40485e-05
6.76471e-05
3.11146e-05
6.76477e-05
4.90152e-05
4.89504e-05
6.76366e-05
5.40374e-05
3.11e-05
3.11032e-05
6.76356e-05
4.89494e-05
4.90136e-05
6.7648e-05
5.40491e-05
3.11164e-05
3.11195e-05
6.7647e-05
4.90125e-05
8.32005e-05
7.28457e-05
7.28401e-05
7.28517e-05
7.28461e-05
8.31967e-05
6.99499e-05
4.31013e-05
6.97501e-05
5.07284e-05
6.97492e-05
5.0729e-05
6.9952e-05
7.11783e-05
6.97074e-05
6.92902e-05
7.11704e-05
6.97082e-05
6.99519e-05
4.30982e-05
6.97489e-05
5.07312e-05
6.995e-05
6.97506e-05
5.07273e-05
7.11705e-05
6.97093e-05
6.92897e-05
6.97061e-05
7.11783e-05
7.00231e-05
7.00181e-05
6.99538e-05
5.07401e-05
6.97531e-05
4.31103e-05
5.07404e-05
6.97523e-05
6.99558e-05
7.11819e-05
6.92966e-05
6.97278e-05
6.97298e-05
7.11745e-05
7.11746e-05
6.97311e-05
6.92961e-05
6.97267e-05
7.11819e-05
6.99557e-05
4.31075e-05
5.07417e-05
6.9752e-05
5.07389e-05
6.97536e-05
6.99539e-05
7.00193e-05
7.0014e-05
8.31974e-05
7.28517e-05
7.28461e-05
7.28458e-05
7.28402e-05
8.31982e-05
4.895e-05
3.11053e-05
6.76358e-05
5.40363e-05
4.89516e-05
3.1098e-05
6.76364e-05
4.90132e-05
3.11217e-05
6.76471e-05
5.40482e-05
4.90149e-05
3.11145e-05
6.76477e-05
8.31999e-05
7.28458e-05
7.28402e-05
8.3196e-05
7.28518e-05
7.28462e-05
4.89505e-05
6.76366e-05
5.40369e-05
3.11e-05
3.11031e-05
6.76356e-05
4.89487e-05
4.90136e-05
6.7648e-05
5.40487e-05
3.11164e-05
3.11195e-05
6.7647e-05
4.90119e-05
6.99566e-05
6.97521e-05
5.07545e-05
4.31114e-05
6.9751e-05
5.07557e-05
6.99586e-05
7.11839e-05
6.9298e-05
6.973e-05
6.97318e-05
7.11766e-05
7.11766e-05
6.9733e-05
6.92975e-05
6.97287e-05
7.11839e-05
6.99585e-05
4.31088e-05
6.97508e-05
5.07576e-05
6.97523e-05
5.07544e-05
6.99567e-05
6.9952e-05
6.97496e-05
4.30995e-05
5.07258e-05
6.99501e-05
6.97506e-05
5.07251e-05
7.11705e-05
6.97094e-05
6.92898e-05
7.11783e-05
6.97061e-05
6.99502e-05
4.31031e-05
6.97502e-05
5.0728e-05
6.9952e-05
6.97493e-05
5.07286e-05
7.11783e-05
6.97047e-05
6.92902e-05
7.11704e-05
6.9708e-05
6.99584e-05
6.97515e-05
5.07534e-05
4.31089e-05
6.99567e-05
6.97525e-05
5.07527e-05
7.11766e-05
6.92975e-05
6.9733e-05
6.97289e-05
7.11841e-05
7.11839e-05
6.97278e-05
6.92979e-05
7.11765e-05
6.97318e-05
6.99567e-05
4.31121e-05
6.97522e-05
5.07524e-05
6.97512e-05
5.07543e-05
6.99583e-05
8.31942e-05
7.28465e-05
7.28513e-05
7.28405e-05
7.28453e-05
8.31958e-05
4.90111e-05
3.11242e-05
5.4058e-05
6.76489e-05
6.76495e-05
3.11168e-05
4.90128e-05
4.89487e-05
3.11049e-05
5.4038e-05
6.76366e-05
3.10975e-05
6.76371e-05
4.89503e-05
4.90114e-05
6.76498e-05
5.40586e-05
3.11185e-05
6.76488e-05
3.11218e-05
4.90101e-05
4.89488e-05
6.76374e-05
5.40385e-05
3.10991e-05
3.11025e-05
6.76364e-05
4.89476e-05
8.3197e-05
7.28405e-05
7.28453e-05
7.28465e-05
7.28513e-05
8.3193e-05
7.00183e-05
7.00132e-05
7.00184e-05
7.00232e-05
8.31972e-05
7.28406e-05
7.28454e-05
8.3193e-05
7.28464e-05
7.28512e-05
4.90155e-05
3.11186e-05
5.40573e-05
6.76496e-05
3.11219e-05
6.76487e-05
4.90094e-05
4.89531e-05
3.10991e-05
5.40374e-05
6.76372e-05
6.76362e-05
3.11025e-05
4.8947e-05
4.90121e-05
6.76486e-05
3.11204e-05
5.40566e-05
3.11169e-05
4.90137e-05
6.76495e-05
4.89497e-05
6.76362e-05
3.1101e-05
5.40365e-05
4.89513e-05
6.76371e-05
3.10975e-05
8.31919e-05
7.28464e-05
7.28512e-05
7.28404e-05
7.28452e-05
8.3196e-05
7.0013e-05
7.00182e-05
6.99562e-05
5.07526e-05
6.97523e-05
4.31126e-05
5.07537e-05
6.97514e-05
6.99582e-05
7.11829e-05
6.92954e-05
6.97255e-05
6.97274e-05
7.11756e-05
7.11757e-05
6.97284e-05
6.92949e-05
6.97242e-05
7.11829e-05
6.99581e-05
4.31099e-05
5.07555e-05
6.97511e-05
5.07523e-05
6.97527e-05
6.99563e-05
6.99551e-05
6.97518e-05
5.07486e-05
4.31118e-05
6.97508e-05
5.07499e-05
6.99571e-05
7.1181e-05
6.92922e-05
6.97057e-05
6.97075e-05
7.11737e-05
7.11737e-05
6.97085e-05
6.92917e-05
6.97044e-05
7.11809e-05
6.9957e-05
4.31091e-05
6.97506e-05
5.07516e-05
6.97522e-05
5.07484e-05
6.99552e-05
6.9958e-05
5.07501e-05
6.97517e-05
4.31097e-05
6.99563e-05
5.07501e-05
6.97526e-05
7.11757e-05
6.9295e-05
6.97285e-05
6.97242e-05
7.11831e-05
7.11829e-05
6.9723e-05
6.92954e-05
7.11756e-05
6.97272e-05
6.99563e-05
4.31127e-05
5.07511e-05
6.97523e-05
5.07529e-05
6.97513e-05
6.99579e-05
6.99569e-05
6.97511e-05
5.07477e-05
4.31088e-05
6.99552e-05
6.97521e-05
5.07472e-05
7.11736e-05
6.92918e-05
6.97085e-05
6.97044e-05
7.1181e-05
7.11809e-05
6.97033e-05
6.92922e-05
7.11736e-05
6.97073e-05
6.99552e-05
4.3112e-05
6.97517e-05
5.07469e-05
6.97508e-05
5.07489e-05
6.99568e-05
6.9954e-05
6.97521e-05
4.31118e-05
5.07432e-05
5.0745e-05
6.97512e-05
6.9956e-05
7.11819e-05
6.9707e-05
6.92932e-05
6.97087e-05
7.11745e-05
6.9956e-05
4.31089e-05
5.07473e-05
6.9751e-05
5.07436e-05
6.97526e-05
6.99542e-05
7.11746e-05
6.97098e-05
6.92927e-05
6.97057e-05
7.11818e-05
6.99532e-05
5.07424e-05
6.97532e-05
4.31151e-05
5.07447e-05
6.97523e-05
6.99553e-05
7.11801e-05
6.92957e-05
6.97234e-05
6.97244e-05
7.11721e-05
7.11722e-05
6.97254e-05
6.92952e-05
6.97221e-05
7.118e-05
6.99553e-05
4.31128e-05
5.07475e-05
6.97521e-05
5.07432e-05
6.97537e-05
6.99534e-05
6.99557e-05
6.97515e-05
4.31085e-05
5.0743e-05
6.9954e-05
5.07405e-05
6.97524e-05
7.11746e-05
6.97098e-05
6.92926e-05
6.97056e-05
7.1182e-05
6.99539e-05
4.31117e-05
5.07389e-05
6.9752e-05
5.07414e-05
6.97511e-05
6.99556e-05
7.11819e-05
6.97045e-05
6.92929e-05
7.11745e-05
6.97086e-05
6.9955e-05
5.07425e-05
6.97526e-05
4.31123e-05
6.99532e-05
5.07396e-05
6.97535e-05
7.11722e-05
6.92952e-05
6.97258e-05
6.97222e-05
7.11802e-05
7.118e-05
6.97208e-05
6.92956e-05
7.11721e-05
6.97242e-05
6.99532e-05
4.31151e-05
5.07386e-05
6.97532e-05
5.07408e-05
6.97523e-05
6.99549e-05
7.00186e-05
7.00138e-05
7.00199e-05
7.00151e-05
8.32002e-05
7.28459e-05
7.28403e-05
8.31963e-05
7.28518e-05
7.28461e-05
4.89544e-05
3.11003e-05
5.40368e-05
6.76366e-05
4.89482e-05
3.11036e-05
6.76355e-05
4.90176e-05
3.11167e-05
5.40486e-05
6.76479e-05
4.90113e-05
3.112e-05
6.76469e-05
4.89511e-05
6.76354e-05
3.11019e-05
5.40352e-05
4.89528e-05
3.10985e-05
6.76364e-05
4.90142e-05
6.76468e-05
3.11183e-05
5.40473e-05
4.9016e-05
3.1115e-05
6.76477e-05
8.31949e-05
7.28518e-05
7.28462e-05
8.31987e-05
7.28458e-05
7.28402e-05
7.00137e-05
7.00186e-05
7.0015e-05
7.00198e-05
7.0021e-05
7.00161e-05
7.00221e-05
7.00172e-05
8.31839e-05
7.28501e-05
7.28456e-05
7.28442e-05
7.28398e-05
8.31862e-05
4.89721e-05
3.1113e-05
5.40461e-05
6.76419e-05
6.76422e-05
3.11057e-05
4.89788e-05
4.90199e-05
3.11291e-05
5.40567e-05
6.76477e-05
6.76486e-05
3.1124e-05
4.90205e-05
4.89721e-05
6.76422e-05
5.40462e-05
3.11071e-05
6.76413e-05
4.89696e-05
3.11103e-05
4.90217e-05
6.76491e-05
5.40574e-05
3.11254e-05
6.7648e-05
4.90196e-05
3.1129e-05
8.31861e-05
7.28447e-05
7.28399e-05
7.28504e-05
7.2846e-05
8.31818e-05
6.99562e-05
4.31136e-05
6.97521e-05
5.07497e-05
6.97511e-05
5.07501e-05
6.99581e-05
7.11842e-05
6.97278e-05
6.9298e-05
7.11768e-05
6.9732e-05
6.99581e-05
4.31102e-05
6.97515e-05
5.07487e-05
6.97525e-05
6.99564e-05
5.07486e-05
7.1177e-05
6.9733e-05
6.92976e-05
6.97291e-05
7.11843e-05
8.31945e-05
7.28464e-05
7.28512e-05
7.28404e-05
7.28452e-05
8.31954e-05
4.90113e-05
3.11205e-05
6.76485e-05
5.4055e-05
6.76493e-05
4.90128e-05
3.1117e-05
4.89489e-05
3.11011e-05
6.7636e-05
5.40342e-05
3.10975e-05
4.89504e-05
6.76369e-05
8.31973e-05
7.28405e-05
7.28453e-05
7.28464e-05
8.31933e-05
7.28512e-05
4.90113e-05
6.76495e-05
5.40567e-05
3.11188e-05
6.76486e-05
3.1122e-05
4.90097e-05
4.89489e-05
6.7637e-05
5.40359e-05
3.10994e-05
3.11026e-05
6.76361e-05
4.89472e-05
7.0018e-05
7.00128e-05
6.99529e-05
6.9753e-05
5.07395e-05
4.31148e-05
6.97521e-05
5.07419e-05
6.99549e-05
7.11797e-05
6.92908e-05
6.97072e-05
6.97082e-05
7.11718e-05
7.1172e-05
6.97093e-05
6.92903e-05
6.97059e-05
7.11798e-05
6.9955e-05
4.31126e-05
6.97519e-05
5.07463e-05
6.97535e-05
5.0741e-05
6.99531e-05
6.99557e-05
4.31138e-05
5.07471e-05
6.97514e-05
5.07492e-05
6.97513e-05
6.99575e-05
7.11832e-05
6.97231e-05
6.92955e-05
6.97274e-05
7.11758e-05
6.99577e-05
4.31103e-05
5.07479e-05
6.97516e-05
5.0748e-05
6.9956e-05
6.97526e-05
7.1176e-05
6.97284e-05
6.92951e-05
6.97244e-05
7.11833e-05
6.99546e-05
4.31131e-05
6.97508e-05
5.07428e-05
6.97507e-05
5.07446e-05
6.99562e-05
7.11811e-05
6.97032e-05
6.92923e-05
7.11737e-05
6.97074e-05
6.99565e-05
4.31096e-05
6.97511e-05
5.07432e-05
6.99548e-05
6.97521e-05
5.07431e-05
7.11739e-05
6.97083e-05
6.92918e-05
6.97045e-05
7.11812e-05
8.32001e-05
7.28466e-05
7.28526e-05
7.28406e-05
7.28467e-05
8.32016e-05
4.90131e-05
3.11211e-05
5.40466e-05
6.76459e-05
6.76466e-05
3.11139e-05
4.90146e-05
4.89536e-05
3.11098e-05
5.40467e-05
6.76389e-05
3.11024e-05
6.76393e-05
4.89553e-05
4.90132e-05
6.76468e-05
5.40471e-05
3.11155e-05
6.76457e-05
3.11189e-05
4.90122e-05
4.89537e-05
6.76394e-05
5.40474e-05
3.11041e-05
3.11075e-05
6.76385e-05
4.89523e-05
8.32029e-05
7.28407e-05
7.28467e-05
7.28466e-05
7.28527e-05
8.3199e-05
7.00214e-05
7.00165e-05
6.99534e-05
4.31126e-05
5.07382e-05
6.97519e-05
5.07388e-05
6.9751e-05
6.99554e-05
7.11821e-05
6.97046e-05
6.92932e-05
6.97088e-05
7.11747e-05
6.99554e-05
4.3109e-05
5.0737e-05
6.97514e-05
5.07362e-05
6.99535e-05
6.97523e-05
7.11748e-05
6.97102e-05
6.92928e-05
6.97059e-05
7.11821e-05
6.99527e-05
4.31163e-05
5.07388e-05
6.97531e-05
5.07393e-05
6.97522e-05
6.99548e-05
7.11803e-05
6.97214e-05
6.92958e-05
7.11723e-05
6.9725e-05
6.99547e-05
4.31131e-05
5.07366e-05
6.97525e-05
6.99529e-05
5.0736e-05
6.97535e-05
7.11725e-05
6.97259e-05
6.92953e-05
6.97229e-05
7.11804e-05
7.00185e-05
7.00137e-05
7.00199e-05
7.00151e-05
1.6147e-05
1.61471e-05
1.58972e-05
1.61474e-05
1.61475e-05
1.6502e-05
1.6502e-05
2.94242e-05
2.027e-05
2.02725e-05
1.66367e-05
2.02588e-05
2.02612e-05
2.94327e-05
1.61469e-05
1.61472e-05
1.58971e-05
1.61471e-05
1.61474e-05
1.65021e-05
1.65022e-05
2.9424e-05
2.027e-05
2.02724e-05
1.66367e-05
2.94327e-05
2.02588e-05
2.02611e-05
2.94225e-05
2.0272e-05
2.02692e-05
1.66355e-05
2.02578e-05
2.02607e-05
2.94312e-05
2.94332e-05
1.6642e-05
2.02615e-05
2.02585e-05
2.02711e-05
2.02682e-05
2.94207e-05
2.94347e-05
1.6642e-05
2.02597e-05
2.0262e-05
2.94222e-05
2.02691e-05
2.02715e-05
2.94264e-05
2.02703e-05
2.02748e-05
1.66363e-05
2.02586e-05
2.02643e-05
2.94345e-05
2.94226e-05
2.02703e-05
2.02673e-05
1.66355e-05
2.02578e-05
2.94313e-05
2.02607e-05
2.94244e-05
2.02714e-05
2.02704e-05
1.66354e-05
2.02593e-05
2.02602e-05
2.94329e-05
1.61471e-05
1.61475e-05
1.58976e-05
1.61475e-05
1.61479e-05
1.65023e-05
1.65024e-05
1.61471e-05
1.61473e-05
1.58974e-05
1.61476e-05
1.61475e-05
1.65021e-05
1.65022e-05
1.61472e-05
1.61474e-05
1.58977e-05
1.61476e-05
1.61477e-05
1.65022e-05
1.65022e-05
1.58971e-05
1.6147e-05
1.61473e-05
1.61473e-05
1.61475e-05
1.65024e-05
1.65024e-05
1.58974e-05
1.61473e-05
1.61476e-05
1.61473e-05
1.61477e-05
1.65027e-05
1.65027e-05
1.58972e-05
1.61473e-05
1.61474e-05
1.61474e-05
1.61473e-05
1.65025e-05
1.65025e-05
1.58975e-05
1.61473e-05
1.61475e-05
1.61474e-05
1.61475e-05
1.65026e-05
1.65025e-05
1.72277e-05
2.56728e-05
1.63265e-05
2.23542e-05
2.56794e-05
1.63299e-05
1.722e-05
1.89717e-05
2.24141e-05
3.83232e-05
3.19183e-05
2.24024e-05
3.19041e-05
1.89816e-05
1.89816e-05
3.19059e-05
3.83309e-05
2.24035e-05
2.24131e-05
3.19164e-05
1.89715e-05
1.72203e-05
2.23482e-05
2.56811e-05
1.633e-05
2.56713e-05
1.63264e-05
1.72275e-05
1.72279e-05
1.63266e-05
2.23548e-05
2.56714e-05
1.63301e-05
2.56779e-05
1.72202e-05
1.89728e-05
2.24178e-05
3.19149e-05
3.83293e-05
3.19011e-05
1.89825e-05
2.24061e-05
1.72205e-05
2.23488e-05
1.63302e-05
2.56796e-05
1.63266e-05
2.56698e-05
1.72277e-05
1.89825e-05
3.1903e-05
3.83369e-05
2.24073e-05
3.19131e-05
1.89725e-05
2.24167e-05
2.94308e-05
1.66437e-05
2.02596e-05
2.0262e-05
2.02692e-05
2.02716e-05
2.94224e-05
1.61477e-05
1.6148e-05
1.58977e-05
1.61476e-05
1.6148e-05
1.65023e-05
1.65024e-05
1.61476e-05
1.61478e-05
1.58975e-05
1.61476e-05
1.61478e-05
1.65021e-05
1.65022e-05
1.61477e-05
1.61479e-05
1.58978e-05
1.61477e-05
1.61478e-05
1.65022e-05
1.65022e-05
1.72276e-05
2.23539e-05
2.56727e-05
1.63264e-05
2.56786e-05
1.63299e-05
1.72198e-05
1.89717e-05
2.2414e-05
3.19183e-05
3.83229e-05
1.89816e-05
2.24024e-05
3.19042e-05
1.72202e-05
2.23478e-05
2.56805e-05
1.63299e-05
1.72274e-05
2.56705e-05
1.63264e-05
1.89816e-05
3.19191e-05
3.83307e-05
2.2405e-05
2.2413e-05
3.19165e-05
1.89718e-05
1.72276e-05
2.23543e-05
1.63265e-05
2.56701e-05
1.633e-05
2.56767e-05
1.72199e-05
1.89724e-05
2.24175e-05
3.19149e-05
3.83288e-05
1.89823e-05
2.24059e-05
3.19011e-05
1.72202e-05
2.23482e-05
1.633e-05
2.56785e-05
1.72274e-05
1.63265e-05
2.56686e-05
1.89823e-05
3.19029e-05
3.83363e-05
2.2407e-05
2.24165e-05
3.19131e-05
1.89723e-05
2.94308e-05
1.66437e-05
2.02594e-05
2.02618e-05
2.02692e-05
2.02715e-05
2.94259e-05
1.7226e-05
1.63262e-05
2.23513e-05
2.5665e-05
2.56713e-05
1.63297e-05
1.72184e-05
1.89707e-05
2.24181e-05
3.19117e-05
3.83298e-05
3.18981e-05
1.89804e-05
2.24072e-05
1.72186e-05
2.23452e-05
2.56726e-05
1.63297e-05
2.56631e-05
1.63262e-05
1.72257e-05
1.89806e-05
3.19004e-05
3.83385e-05
2.24101e-05
3.19106e-05
1.89709e-05
2.2419e-05
1.72289e-05
2.56751e-05
1.63272e-05
2.23546e-05
2.56816e-05
1.63307e-05
1.72212e-05
1.89745e-05
2.24216e-05
3.83333e-05
3.19239e-05
3.19098e-05
2.241e-05
1.89843e-05
1.89842e-05
3.19117e-05
3.83408e-05
2.24109e-05
3.1922e-05
1.89741e-05
2.24205e-05
1.72214e-05
2.23487e-05
2.56834e-05
1.63307e-05
2.56736e-05
1.63272e-05
1.72286e-05
1.72186e-05
1.63297e-05
2.23452e-05
2.56698e-05
1.72257e-05
2.56633e-05
1.63262e-05
1.89814e-05
2.24085e-05
3.18996e-05
3.83369e-05
3.191e-05
1.89708e-05
2.24173e-05
1.72255e-05
2.23513e-05
2.56646e-05
1.63263e-05
2.56712e-05
1.63298e-05
1.72183e-05
1.89712e-05
3.19088e-05
2.24182e-05
3.83295e-05
1.89812e-05
3.18981e-05
2.2407e-05
1.72214e-05
2.568e-05
1.63306e-05
2.23485e-05
1.72286e-05
2.56734e-05
1.63271e-05
1.89849e-05
2.24109e-05
3.83408e-05
3.19115e-05
3.19219e-05
2.24204e-05
1.89743e-05
1.89746e-05
3.192e-05
2.24194e-05
3.83333e-05
1.89843e-05
3.19096e-05
2.24099e-05
1.72284e-05
2.23545e-05
2.56746e-05
1.63272e-05
2.56813e-05
1.63307e-05
1.72212e-05
2.94293e-05
1.66422e-05
2.02615e-05
2.02586e-05
2.02682e-05
2.02711e-05
2.94207e-05
2.94227e-05
1.66352e-05
2.02703e-05
2.02674e-05
2.02607e-05
2.94314e-05
2.02577e-05
1.72278e-05
1.63267e-05
2.56724e-05
2.23543e-05
1.63301e-05
2.56789e-05
1.72201e-05
1.89721e-05
2.24163e-05
3.83264e-05
3.19159e-05
2.24047e-05
3.19018e-05
1.8982e-05
1.89818e-05
3.19035e-05
3.83339e-05
2.24058e-05
2.24153e-05
3.1914e-05
1.89718e-05
1.72204e-05
2.23484e-05
1.63302e-05
2.56806e-05
1.63267e-05
2.56708e-05
1.72275e-05
1.72202e-05
2.56779e-05
1.63299e-05
2.2348e-05
1.72274e-05
2.56713e-05
1.63264e-05
1.89821e-05
2.24034e-05
3.83308e-05
3.1906e-05
1.89714e-05