/*--------------------------------*- C++ -*----------------------------------*\
| =========                 |                                                 |
| \\      /  F ield         | OpenFOAM: The Open Source CFD Toolbox           |
|  \\    /   O peration     | Version:  v1912                                 |
|   \\  /    A nd           | Website:  www.openfoam.com                      |
|    \\/     M anipulation  |                                                 |
\*---------------------------------------------------------------------------*/
FoamFile
{
    version     2.0;
    format      ascii;
    class       volScalarField;
    location    "80";
    object      nut;
}
// * * * * * * * * * * * * * * * * * * * * * * * * * * * * * * * * * * * * * //

dimensions      [0 2 -1 0 0 0 0];


internalField   nonuniform List<scalar> 
57566
(
2.36914e-05
5.8527e-05
0.000117442
0.00014294
5.68753e-05
9.21127e-05
5.52768e-05
5.52803e-05
2.3693e-05
2.36924e-05
9.1941e-05
5.52703e-05
5.52836e-05
5.65435e-05
4.92888e-05
5.65661e-05
4.92923e-05
5.84939e-05
0.000117429
5.68579e-05
0.00014295
5.85006e-05
0.000117415
5.68581e-05
0.000142942
2.36936e-05
9.19432e-05
5.52851e-05
5.52736e-05
2.36935e-05
5.65818e-05
4.92833e-05
5.85108e-05
0.000117407
0.000142941
5.68568e-05
5.65572e-05
4.92882e-05
5.8498e-05
0.000117447
5.68611e-05
0.000142954
5.65753e-05
4.92829e-05
5.85112e-05
0.000117409
0.000142941
5.68542e-05
5.85083e-05
0.000117431
0.000142948
5.68593e-05
5.65745e-05
4.92866e-05
5.84984e-05
0.000117452
5.68539e-05
0.000142945
5.65677e-05
4.92901e-05
5.85087e-05
0.000117432
0.000142948
5.68572e-05
5.65685e-05
4.92863e-05
9.21025e-05
5.52742e-05
5.52893e-05
2.36936e-05
2.36905e-05
9.19589e-05
5.52717e-05
5.52867e-05
2.36927e-05
5.85098e-05
0.000117452
0.000142951
5.68602e-05
5.65901e-05
4.92864e-05
5.65903e-05
4.92875e-05
5.85257e-05
0.000117444
0.000142941
5.68728e-05
5.85099e-05
0.000117452
0.00014295
5.6858e-05
5.65835e-05
4.92861e-05
5.6584e-05
4.92871e-05
2.3693e-05
2.36924e-05
9.19682e-05
5.52744e-05
5.5275e-05
2.36921e-05
2.36915e-05
2.36907e-05
6.60041e-05
2.16133e-05
2.16104e-05
2.16125e-05
2.16097e-05
6.60123e-05
6.40045e-05
4.67491e-05
5.52697e-05
6.06556e-05
6.0645e-05
4.67489e-05
6.4017e-05
6.40539e-05
4.67407e-05
5.52733e-05
6.06649e-05
6.06545e-05
4.67404e-05
6.40655e-05
2.36938e-05
2.36931e-05
6.60083e-05
2.16132e-05
2.16093e-05
6.59989e-05
2.16137e-05
2.16106e-05
6.40219e-05
4.67503e-05
6.06515e-05
5.52773e-05
6.40153e-05
4.67501e-05
6.066e-05
6.40653e-05
4.674e-05
6.06595e-05
5.52902e-05
6.40534e-05
4.67407e-05
6.06715e-05
3.62205e-05
4.05096e-05
6.0247e-05
5.6553e-05
3.62204e-05
4.05099e-05
6.02534e-05
2.02429e-05
6.34902e-05
4.92888e-05
2.02422e-05
6.3503e-05
3.62237e-05
4.05102e-05
6.0292e-05
5.65746e-05
3.62235e-05
4.05105e-05
6.02979e-05
2.02448e-05
6.35194e-05
4.92924e-05
2.02438e-05
6.35315e-05
2.36943e-05
6.60108e-05
2.16104e-05
2.16127e-05
6.60017e-05
2.16111e-05
2.16134e-05
6.40625e-05
4.67414e-05
6.06567e-05
5.52916e-05
6.06693e-05
6.4051e-05
4.67416e-05
6.40192e-05
4.67492e-05
6.06488e-05
5.5281e-05
6.4008e-05
4.67494e-05
6.0661e-05
2.36943e-05
3.62203e-05
5.65757e-05
4.05101e-05
6.02781e-05
4.05098e-05
6.0271e-05
3.62205e-05
2.0242e-05
6.35006e-05
4.92832e-05
6.34858e-05
2.0243e-05
3.62227e-05
6.0268e-05
4.05098e-05
5.65658e-05
3.62223e-05
6.02737e-05
4.05101e-05
2.02447e-05
6.35155e-05
4.92882e-05
2.02438e-05
6.35271e-05
3.62201e-05
4.05097e-05
6.02731e-05
5.65804e-05
3.62198e-05
4.05099e-05
6.02769e-05
2.02428e-05
6.3488e-05
4.9283e-05
2.02417e-05
6.34986e-05
3.62217e-05
5.65669e-05
4.05099e-05
6.0292e-05
4.05096e-05
6.02854e-05
3.62219e-05
2.02431e-05
6.35059e-05
4.92865e-05
6.34924e-05
2.0244e-05
3.62241e-05
6.02885e-05
4.05097e-05
5.6576e-05
3.62239e-05
6.02942e-05
4.051e-05
2.02453e-05
6.35159e-05
4.92902e-05
2.02444e-05
6.35281e-05
3.62215e-05
4.05095e-05
6.02905e-05
5.65736e-05
3.62212e-05
4.05097e-05
6.02928e-05
2.02438e-05
6.34936e-05
4.92863e-05
2.02428e-05
6.35039e-05
6.60054e-05
2.16099e-05
2.16132e-05
2.16091e-05
2.16125e-05
6.60137e-05
6.40479e-05
4.67389e-05
5.52662e-05
6.06605e-05
4.67387e-05
6.06506e-05
6.40603e-05
6.40079e-05
4.67504e-05
5.52823e-05
6.06641e-05
6.0654e-05
4.67501e-05
6.40203e-05
2.36929e-05
2.36912e-05
6.60144e-05
2.16089e-05
2.16123e-05
6.60072e-05
2.16097e-05
2.1613e-05
6.40652e-05
4.67384e-05
6.0656e-05
5.52755e-05
6.06608e-05
6.40595e-05
4.67387e-05
6.4025e-05
4.67498e-05
6.06594e-05
5.52903e-05
6.40194e-05
4.67501e-05
6.06643e-05
2.36934e-05
3.6222e-05
5.6584e-05
6.02872e-05
4.05104e-05
6.02803e-05
4.05101e-05
3.62222e-05
2.02432e-05
6.35051e-05
4.92863e-05
6.34917e-05
2.02441e-05
3.62239e-05
5.65844e-05
6.0303e-05
4.05105e-05
6.02967e-05
4.05102e-05
3.62241e-05
2.02444e-05
6.35259e-05
4.92874e-05
6.35128e-05
2.02453e-05
3.62218e-05
6.0288e-05
4.051e-05
5.65886e-05
3.62215e-05
6.02911e-05
4.05102e-05
2.02439e-05
6.34928e-05
4.92861e-05
2.0243e-05
6.35031e-05
3.62237e-05
6.02961e-05
4.05101e-05
5.65887e-05
3.62234e-05
6.03001e-05
4.05103e-05
2.0245e-05
6.35137e-05
4.92872e-05
2.02441e-05
6.35239e-05
2.36923e-05
2.36917e-05
6.60129e-05
2.16123e-05
2.16094e-05
6.60059e-05
2.1613e-05
2.16102e-05
6.40218e-05
4.67486e-05
6.06513e-05
5.52781e-05
6.40162e-05
6.06564e-05
4.67489e-05
6.40704e-05
4.67401e-05
6.06606e-05
5.52787e-05
6.40652e-05
6.06656e-05
4.67404e-05
2.36928e-05
2.36922e-05
0.000165628
0.000185472
0.000185482
0.000201478
0.000165637
0.000185476
0.000185485
0.000201479
0.000165636
0.000185477
0.000185489
0.000201484
0.000165639
0.000185477
0.000185489
0.000201483
0.000165629
0.000185472
0.000185482
0.000201478
0.000165637
0.000185476
0.000185485
0.000201478
7.79492e-05
5.85294e-05
8.33925e-05
5.83511e-05
8.33002e-05
5.83582e-05
7.80564e-05
6.85345e-05
5.74302e-05
5.68783e-05
6.34926e-05
6.34779e-05
5.74277e-05
6.85974e-05
6.35539e-05
9.19491e-05
7.14895e-05
7.14816e-05
7.14635e-05
7.14549e-05
6.35397e-05
6.35411e-05
9.21024e-05
7.14606e-05
7.14547e-05
6.35638e-05
7.14865e-05
7.14819e-05
7.80669e-05
5.83181e-05
8.3304e-05
5.84986e-05
7.79598e-05
5.83181e-05
8.33885e-05
6.85884e-05
5.73811e-05
6.34768e-05
5.68474e-05
6.34867e-05
6.85303e-05
5.73662e-05
7.80659e-05
5.83371e-05
8.33036e-05
5.85055e-05
7.79592e-05
5.83374e-05
8.33881e-05
6.85873e-05
5.7399e-05
6.34753e-05
5.68553e-05
6.85287e-05
5.73843e-05
6.34917e-05
6.35372e-05
9.21052e-05
7.14524e-05
7.14611e-05
7.14788e-05
6.35595e-05
7.14879e-05
7.79516e-05
5.85094e-05
8.33932e-05
5.84138e-05
8.33041e-05
5.84203e-05
7.80604e-05
6.85257e-05
5.74237e-05
5.68594e-05
6.34739e-05
5.74211e-05
6.85868e-05
6.34608e-05
7.80624e-05
5.83294e-05
8.33038e-05
5.85034e-05
7.79548e-05
5.83276e-05
8.33894e-05
6.85858e-05
5.73388e-05
6.34809e-05
5.68541e-05
6.34919e-05
6.85282e-05
5.73109e-05
7.80585e-05
8.33226e-05
5.8411e-05
5.85208e-05
7.79676e-05
8.33968e-05
5.8414e-05
6.8592e-05
5.74224e-05
6.34592e-05
5.68612e-05
6.85352e-05
5.7414e-05
6.34751e-05
7.79555e-05
5.85067e-05
8.33962e-05
5.84216e-05
8.33063e-05
5.84279e-05
7.80644e-05
6.85336e-05
5.74334e-05
5.68649e-05
6.34875e-05
6.34729e-05
5.74304e-05
6.85948e-05
7.80619e-05
5.83342e-05
8.33033e-05
5.85031e-05
7.79536e-05
5.8333e-05
8.33905e-05
6.85904e-05
5.73947e-05
6.3471e-05
5.68568e-05
6.8528e-05
6.34871e-05
5.73803e-05
7.80624e-05
8.33263e-05
5.84187e-05
5.85183e-05
7.79716e-05
8.34003e-05
5.84216e-05
6.85998e-05
5.74321e-05
6.34711e-05
5.68643e-05
6.85433e-05
5.74235e-05
6.34857e-05
6.35516e-05
9.19401e-05
7.14733e-05
7.1487e-05
7.14607e-05
7.14465e-05
6.3537e-05
6.35452e-05
9.21117e-05
7.14522e-05
7.14662e-05
7.14727e-05
6.35397e-05
7.14864e-05
7.79481e-05
5.85101e-05
8.33878e-05
5.84259e-05
8.32976e-05
5.84324e-05
7.80571e-05
6.85296e-05
5.74373e-05
5.68619e-05
6.34824e-05
6.34677e-05
5.74348e-05
6.85912e-05
7.80541e-05
8.33221e-05
5.83533e-05
5.85342e-05
7.79625e-05
8.33978e-05
5.83611e-05
6.86044e-05
5.74288e-05
6.34765e-05
5.68794e-05
6.85467e-05
6.34918e-05
5.74201e-05
7.80556e-05
8.3317e-05
5.84228e-05
5.85212e-05
7.7964e-05
8.33924e-05
5.84259e-05
6.85968e-05
5.74359e-05
6.34677e-05
5.68648e-05
6.8539e-05
5.74275e-05
6.3483e-05
6.35482e-05
9.21192e-05
7.14686e-05
7.14604e-05
6.35425e-05
7.14888e-05
7.14808e-05
2.36936e-05
2.3692e-05
9.19119e-05
5.53133e-05
5.53138e-05
5.66038e-05
4.92903e-05
5.66239e-05
5.85794e-05
0.00011735
5.69075e-05
0.000142862
5.85855e-05
0.000142855
5.66197e-05
4.92885e-05
5.85849e-05
0.000117366
5.69046e-05
0.00014286
5.66247e-05
4.9284e-05
5.85865e-05
0.000117335
0.000142851
5.68946e-05
2.36903e-05
9.19077e-05
5.52968e-05
5.53142e-05
2.36926e-05
5.858e-05
0.000117364
0.000142854
5.69062e-05
5.85825e-05
0.000142866
5.66204e-05
4.92872e-05
5.66292e-05
2.36944e-05
2.36928e-05
6.60238e-05
2.16122e-05
2.16092e-05
6.60163e-05
2.1613e-05
2.16101e-05
6.40847e-05
4.67525e-05
6.07035e-05
5.53135e-05
6.40846e-05
4.67527e-05
6.07022e-05
6.4118e-05
4.6741e-05
6.07101e-05
5.53135e-05
6.41177e-05
4.67412e-05
6.07084e-05
3.62204e-05
4.05085e-05
6.03012e-05
5.66022e-05
3.622e-05
4.05085e-05
6.0301e-05
2.02433e-05
6.35181e-05
4.92906e-05
2.02422e-05
6.35223e-05
3.62232e-05
4.0509e-05
6.03327e-05
5.66219e-05
3.62228e-05
4.05091e-05
6.03321e-05
3.62224e-05
6.0321e-05
4.05085e-05
5.66173e-05
3.6222e-05
6.03205e-05
4.05087e-05
2.02447e-05
6.35401e-05
4.92886e-05
2.02437e-05
6.35454e-05
3.62202e-05
4.05085e-05
6.03118e-05
5.66221e-05
3.62197e-05
4.05086e-05
6.03106e-05
2.02431e-05
6.35159e-05
4.92841e-05
2.0242e-05
6.3521e-05
2.36912e-05
6.60343e-05
2.1609e-05
2.16124e-05
6.60281e-05
2.16099e-05
2.16133e-05
6.41024e-05
4.67401e-05
6.06945e-05
5.52972e-05
6.06933e-05
6.41017e-05
4.67403e-05
6.40623e-05
4.67518e-05
6.06978e-05
5.53143e-05
6.40613e-05
4.67518e-05
6.06967e-05
2.36934e-05
3.62211e-05
6.03159e-05
4.05079e-05
5.66183e-05
3.62206e-05
6.03161e-05
4.0508e-05
2.02443e-05
6.35225e-05
4.92874e-05
2.02433e-05
6.3527e-05
3.62226e-05
6.03168e-05
4.05085e-05
5.66265e-05
3.62221e-05
6.03169e-05
4.05086e-05
0.000165558
0.000185412
0.000185418
0.000201429
0.000185413
0.000201429
0.000165547
0.000185405
0.00018541
0.000201418
0.00018542
0.000201424
6.36073e-05
9.20629e-05
7.14528e-05
7.1437e-05
6.36283e-05
7.14749e-05
7.14593e-05
7.80302e-05
5.84091e-05
8.32837e-05
5.85642e-05
7.794e-05
5.83928e-05
8.33593e-05
6.8583e-05
5.73763e-05
6.34701e-05
5.6908e-05
6.34991e-05
6.85278e-05
5.74078e-05
7.80293e-05
5.84224e-05
8.32832e-05
5.85701e-05
7.7939e-05
5.84068e-05
8.33585e-05
7.80263e-05
5.84172e-05
8.32823e-05
5.85692e-05
7.79353e-05
5.84005e-05
8.33574e-05
6.85805e-05
5.73847e-05
6.34667e-05
5.69119e-05
6.34849e-05
6.85241e-05
5.74154e-05
7.80229e-05
8.32814e-05
5.84149e-05
5.85705e-05
7.79333e-05
8.33555e-05
5.83985e-05
6.85737e-05
5.73745e-05
6.34574e-05
5.6903e-05
6.85178e-05
5.74057e-05
6.34761e-05
6.36017e-05
9.20591e-05
7.14401e-05
7.1453e-05
7.1462e-05
6.36226e-05
7.14748e-05
7.80215e-05
8.32749e-05
5.84103e-05
5.85655e-05
7.79303e-05
8.335e-05
5.8443e-05
6.85803e-05
5.73833e-05
6.3469e-05
5.69103e-05
6.85244e-05
6.34953e-05
5.74149e-05
7.80206e-05
8.32785e-05
5.84127e-05
5.85669e-05
7.79305e-05
8.33527e-05
5.83975e-05
0.000165552
0.000117371
0.000117359
9.1914e-05
0.000165554
0.000117369
0.000117361
9.19153e-05
0.000117343
0.000117327
0.000117332
0.000117327
9.19198e-05
9.20725e-05
0.000117344
0.000117371
0.000117345
0.000117364
0.00011736
0.000117364
9.20634e-05
9.19168e-05
0.00011735
0.00011733
9.19238e-05
0.000117365
0.000117334
0.000117349
9.19098e-05
0.000117367
5.66062e-05
4.92903e-05
5.66085e-05
4.92889e-05
2.3693e-05
2.36938e-05
0.000165555
0.00016554
0.000165555
0.000165554
0.000165555
0.000165543
0.000165556
5.85887e-05
5.68982e-05
0.000142859
0.000117375
5.69008e-05
0.000142862
5.85845e-05
5.85857e-05
0.000142853
5.69074e-05
0.00011736
0.000142857
5.85816e-05
5.69095e-05
5.5304e-05
5.53059e-05
9.20741e-05
5.53066e-05
5.53088e-05
5.66065e-05
4.92896e-05
5.66077e-05
4.92904e-05
2.36929e-05
2.36937e-05
5.66224e-05
4.92887e-05
4.92886e-05
5.66247e-05
0.000165558
0.000165546
0.000165558
5.85529e-05
5.68976e-05
0.000142857
0.00011737
5.85836e-05
5.68959e-05
0.000142858
2.36903e-05
2.36912e-05
5.85851e-05
0.000142854
5.69061e-05
0.000117364
5.85804e-05
0.000142853
5.69089e-05
5.53034e-05
5.53057e-05
9.20725e-05
5.53032e-05
5.53055e-05
5.66211e-05
4.92923e-05
4.92924e-05
5.6625e-05
5.85838e-05
5.69092e-05
0.000142859
0.000117331
0.000142859
5.85797e-05
5.69113e-05
5.85899e-05
5.69107e-05
0.000142852
0.000117329
5.69136e-05
0.000142853
5.85859e-05
5.66014e-05
4.92897e-05
5.66108e-05
4.92887e-05
5.66178e-05
4.92925e-05
4.92922e-05
5.66251e-05
5.8577e-05
0.000117341
5.69107e-05
0.000142857
0.000142857
5.85841e-05
5.69036e-05
5.8583e-05
0.000117328
5.69134e-05
0.000142851
5.6906e-05
0.000142851
5.859e-05
5.53188e-05
5.53053e-05
9.20722e-05
5.53214e-05
5.53047e-05
2.36932e-05
2.3694e-05
2.36938e-05
2.3693e-05
9.19217e-05
5.53193e-05
5.53049e-05
5.5315e-05
5.53007e-05
2.3694e-05
2.36932e-05
5.6623e-05
4.92908e-05
4.92909e-05
5.66268e-05
5.85887e-05
0.00014286
5.69034e-05
0.000117347
0.000142861
5.69062e-05
5.85846e-05
5.66217e-05
4.92872e-05
4.92874e-05
5.66255e-05
5.85816e-05
0.000117374
5.69005e-05
0.000142858
5.68931e-05
0.000142862
5.85884e-05
5.66185e-05
4.92909e-05
4.92907e-05
5.66244e-05
5.85816e-05
0.000117346
0.000142858
5.69062e-05
0.000142859
5.68987e-05
5.85884e-05
5.66167e-05
4.92874e-05
4.92871e-05
5.6623e-05
5.85875e-05
0.000142862
5.69031e-05
0.000117366
0.000142864
5.69058e-05
5.85834e-05
5.66207e-05
4.9287e-05
5.66245e-05
4.92871e-05
5.66284e-05
4.92873e-05
4.92875e-05
5.66335e-05
5.85787e-05
0.000117356
0.000142853
5.69089e-05
0.000142857
5.85853e-05
5.69014e-05
5.85804e-05
0.000117365
0.000142861
5.69058e-05
0.000142862
5.68983e-05
5.85872e-05
5.66162e-05
4.92873e-05
5.66217e-05
4.92869e-05
5.66243e-05
4.92875e-05
4.92872e-05
5.663e-05
2.36919e-05
2.36927e-05
2.36913e-05
2.36921e-05
9.1922e-05
5.53061e-05
5.53087e-05
5.53003e-05
5.53028e-05
2.36927e-05
2.3692e-05
2.36921e-05
2.36913e-05
2.3693e-05
2.36944e-05
2.36923e-05
2.36928e-05
5.53138e-05
5.53156e-05
9.20654e-05
5.53167e-05
5.53173e-05
5.66279e-05
4.92922e-05
5.66212e-05
4.92925e-05
5.85844e-05
5.6903e-05
0.000142862
0.000117351
5.85773e-05
5.69102e-05
0.000142862
5.85905e-05
5.69058e-05
0.000142854
0.000117329
5.85834e-05
5.69023e-05
0.000142854
5.53126e-05
5.52976e-05
9.20696e-05
5.53163e-05
5.53016e-05
2.36932e-05
2.3694e-05
5.85902e-05
5.69043e-05
0.00014286
0.000117366
5.69074e-05
0.000142859
5.8586e-05
5.66283e-05
4.92839e-05
4.92841e-05
5.66335e-05
5.85918e-05
0.000142852
5.68948e-05
0.000117336
0.000142851
5.68975e-05
5.85879e-05
5.66244e-05
4.92907e-05
5.66197e-05
4.9291e-05
5.85531e-05
0.000142861
5.68987e-05
0.000117348
5.85814e-05
0.000142861
5.68956e-05
5.66232e-05
4.92872e-05
5.66188e-05
4.92874e-05
5.53011e-05
5.5315e-05
9.20608e-05
5.5301e-05
5.53177e-05
2.36926e-05
2.36934e-05
5.85873e-05
0.000142865
5.68982e-05
0.000117366
5.85802e-05
0.000142864
5.68951e-05
5.66243e-05
4.92871e-05
5.66175e-05
4.92874e-05
5.6633e-05
4.92873e-05
5.66262e-05
4.92875e-05
2.3692e-05
2.36927e-05
2.36913e-05
2.36921e-05
3.62195e-05
4.05084e-05
5.66021e-05
6.03024e-05
4.05083e-05
6.02987e-05
3.622e-05
2.0243e-05
6.35168e-05
4.92901e-05
6.35239e-05
2.02422e-05
3.62202e-05
5.66056e-05
4.05085e-05
6.03013e-05
4.0509e-05
6.03031e-05
3.62199e-05
2.02419e-05
6.35256e-05
4.92892e-05
6.35157e-05
2.0243e-05
2.36938e-05
2.3693e-05
6.60294e-05
2.16133e-05
2.16105e-05
2.16124e-05
2.16096e-05
6.60338e-05
6.40603e-05
6.06921e-05
5.53066e-05
4.67503e-05
6.06913e-05
4.67505e-05
6.4055e-05
6.41087e-05
6.07015e-05
5.53086e-05
4.67419e-05
6.07007e-05
4.6742e-05
6.41038e-05
6.40542e-05
4.67506e-05
5.53034e-05
6.06934e-05
6.06889e-05
4.67502e-05
6.40608e-05
6.41028e-05
4.67421e-05
5.53056e-05
6.07028e-05
6.06983e-05
4.67418e-05
6.41089e-05
6.60352e-05
2.16124e-05
2.16096e-05
2.16133e-05
2.16105e-05
6.60281e-05
3.62199e-05
5.66022e-05
4.05089e-05
6.03036e-05
4.05086e-05
6.02993e-05
3.62205e-05
2.02433e-05
6.35184e-05
4.929e-05
2.02422e-05
6.35257e-05
3.62205e-05
5.6605e-05
4.05085e-05
6.03018e-05
3.622e-05
4.0509e-05
6.03037e-05
2.02422e-05
6.35268e-05
4.92902e-05
6.35168e-05
2.02433e-05
2.36938e-05
2.36929e-05
3.62219e-05
6.03223e-05
4.05089e-05
5.66186e-05
6.03184e-05
4.05086e-05
3.62225e-05
2.02447e-05
4.92885e-05
6.35397e-05
6.35472e-05
2.02436e-05
2.02437e-05
6.35486e-05
4.92884e-05
6.35385e-05
2.02447e-05
3.62224e-05
5.66214e-05
6.03196e-05
4.05086e-05
6.03222e-05
4.0509e-05
3.62219e-05
2.36912e-05
2.36903e-05
6.6029e-05
2.16133e-05
2.16105e-05
2.16124e-05
2.16096e-05
6.60314e-05
6.406e-05
6.06921e-05
4.67503e-05
5.53061e-05
6.40548e-05
6.06913e-05
4.67505e-05
6.41084e-05
6.07015e-05
4.67419e-05
5.53084e-05
6.41035e-05
6.07006e-05
4.67421e-05
6.60348e-05
2.16124e-05
2.16096e-05
6.60277e-05
2.16133e-05
2.16105e-05
6.40547e-05
4.67506e-05
5.53027e-05
6.06902e-05
6.06888e-05
4.67502e-05
6.40549e-05
6.41032e-05
4.67421e-05
5.53048e-05
6.06993e-05
6.06982e-05
4.67418e-05
6.41036e-05
3.62229e-05
4.05092e-05
6.03435e-05
5.66177e-05
4.05091e-05
6.03415e-05
3.62234e-05
2.02447e-05
4.92924e-05
6.35428e-05
6.35502e-05
2.02437e-05
2.02437e-05
6.35514e-05
4.92922e-05
6.35413e-05
2.02447e-05
3.62234e-05
5.66214e-05
4.0509e-05
6.03432e-05
4.05095e-05
6.03455e-05
3.62229e-05
3.622e-05
4.05082e-05
5.66073e-05
6.02927e-05
3.62195e-05
4.05085e-05
6.02974e-05
2.02419e-05
6.35273e-05
4.92895e-05
2.02433e-05
6.35172e-05
3.62198e-05
5.66067e-05
4.05089e-05
6.03029e-05
3.62205e-05
4.05084e-05
6.02983e-05
2.0243e-05
6.35152e-05
4.92892e-05
2.02419e-05
6.35249e-05
3.62234e-05
4.0509e-05
6.03389e-05
5.66233e-05
3.62229e-05
4.05093e-05
6.03426e-05
2.02437e-05
4.92922e-05
6.35515e-05
6.35414e-05
2.02448e-05
2.02447e-05
6.35399e-05
4.92924e-05
2.02437e-05
6.35501e-05
3.62229e-05
5.66218e-05
4.05094e-05
6.03408e-05
4.05089e-05
6.03398e-05
3.62233e-05
6.60277e-05
2.1611e-05
2.16134e-05
2.16101e-05
2.16125e-05
6.60323e-05
6.41071e-05
6.07058e-05
5.53214e-05
4.67432e-05
4.67433e-05
6.07046e-05
6.41022e-05
6.40617e-05
6.0695e-05
5.53071e-05
4.67504e-05
6.06937e-05
4.67506e-05
6.40567e-05
6.41015e-05
4.67435e-05
5.53182e-05
6.07061e-05
4.67431e-05
6.0702e-05
6.41071e-05
6.40558e-05
4.67507e-05
5.53029e-05
6.06952e-05
6.06911e-05
4.67503e-05
6.40617e-05
6.60336e-05
2.16101e-05
2.16125e-05
2.1611e-05
2.16134e-05
6.60265e-05
2.36941e-05
2.36932e-05
2.3693e-05
2.36938e-05
6.60337e-05
2.16101e-05
2.16125e-05
6.60264e-05
2.16109e-05
2.16134e-05
6.4106e-05
6.07066e-05
5.53159e-05
4.67434e-05
6.07026e-05
4.67431e-05
6.41051e-05
6.40606e-05
6.06956e-05
5.53018e-05
4.67506e-05
4.67503e-05
6.06917e-05
6.40599e-05
6.41091e-05
4.6743e-05
6.07017e-05
5.53188e-05
6.07052e-05
6.41045e-05
4.67434e-05
6.40638e-05
4.67502e-05
6.06908e-05
5.53053e-05
6.4059e-05
4.67505e-05
6.06942e-05
6.60251e-05
2.16109e-05
2.16134e-05
2.16101e-05
2.16125e-05
6.60324e-05
2.36932e-05
2.3694e-05
3.62234e-05
6.03425e-05
4.05088e-05
5.66196e-05
6.03402e-05
4.05086e-05
3.62239e-05
2.02454e-05
4.92909e-05
6.35412e-05
6.35487e-05
2.02443e-05
2.02443e-05
6.35498e-05
4.92907e-05
6.35398e-05
2.02454e-05
3.62239e-05
5.66232e-05
6.03417e-05
4.05085e-05
6.0344e-05
4.0509e-05
3.62234e-05
3.62212e-05
4.05087e-05
6.03351e-05
5.66183e-05
4.05085e-05
6.03331e-05
3.62217e-05
2.02441e-05
4.92873e-05
6.35211e-05
6.35285e-05
2.0243e-05
2.0243e-05
6.35296e-05
4.92872e-05
6.35196e-05
2.0244e-05
3.62217e-05
5.6622e-05
4.05084e-05
6.03344e-05
4.05089e-05
6.03368e-05
3.62212e-05
3.62238e-05
6.03346e-05
4.05086e-05
5.6624e-05
3.62234e-05
6.03396e-05
4.05089e-05
2.02443e-05
4.92907e-05
6.35499e-05
6.35398e-05
2.02454e-05
2.02454e-05
6.35382e-05
4.92909e-05
2.02443e-05
6.35484e-05
3.62234e-05
5.6621e-05
6.0341e-05
4.05088e-05
6.03397e-05
4.05086e-05
3.62238e-05
3.62217e-05
4.05085e-05
6.03308e-05
5.66225e-05
3.62212e-05
4.05088e-05
6.03349e-05
2.0243e-05
4.92872e-05
6.35295e-05
6.35195e-05
2.02441e-05
2.0244e-05
6.35181e-05
4.92873e-05
2.0243e-05
6.35281e-05
3.62212e-05
5.66198e-05
4.05087e-05
6.03331e-05
4.05085e-05
6.03322e-05
3.62216e-05
3.62208e-05
4.05084e-05
5.66173e-05
6.0325e-05
6.03233e-05
4.05081e-05
3.62213e-05
2.02443e-05
6.35222e-05
4.92871e-05
6.35294e-05
2.02432e-05
3.62213e-05
5.66209e-05
6.03254e-05
4.0508e-05
6.03277e-05
4.05085e-05
3.62208e-05
2.02433e-05
6.35305e-05
4.92869e-05
6.35206e-05
2.02443e-05
3.62222e-05
6.0324e-05
4.05089e-05
5.66256e-05
6.03229e-05
4.05087e-05
3.62227e-05
2.02446e-05
4.92875e-05
6.35327e-05
6.35402e-05
2.02434e-05
2.02434e-05
6.35414e-05
4.92873e-05
6.35312e-05
2.02445e-05
3.62227e-05
5.66294e-05
6.03262e-05
4.05086e-05
6.03274e-05
4.05091e-05
3.62222e-05
3.62213e-05
4.05082e-05
5.66212e-05
6.03212e-05
3.62208e-05
6.03222e-05
4.05084e-05
2.02432e-05
6.35304e-05
4.92871e-05
6.35205e-05
2.02443e-05
3.62208e-05
5.66185e-05
6.03181e-05
4.05083e-05
6.03173e-05
4.05081e-05
3.62212e-05
2.02443e-05
6.35193e-05
4.9287e-05
2.02432e-05
6.35291e-05
3.62227e-05
6.03208e-05
4.05087e-05
5.66297e-05
3.62222e-05
6.03211e-05
4.0509e-05
2.02434e-05
4.92873e-05
6.35419e-05
6.35313e-05
2.02446e-05
2.02445e-05
6.35293e-05
4.92874e-05
2.02434e-05
6.35399e-05
3.62222e-05
5.66271e-05
6.03176e-05
4.05089e-05
6.03163e-05
4.05086e-05
3.62226e-05
2.36928e-05
2.3692e-05
2.36921e-05
2.36913e-05
6.60351e-05
2.16125e-05
2.16096e-05
6.60279e-05
2.16133e-05
2.16105e-05
6.40587e-05
6.06946e-05
5.53024e-05
4.67506e-05
6.40581e-05
6.06903e-05
4.67502e-05
6.41074e-05
6.0704e-05
5.53048e-05
4.67421e-05
6.41064e-05
6.06998e-05
4.67418e-05
6.40623e-05
4.67502e-05
6.06889e-05
5.53038e-05
6.40574e-05
6.06928e-05
4.67505e-05
6.41105e-05
4.67417e-05
6.06983e-05
5.53065e-05
6.4106e-05
6.07022e-05
4.6742e-05
6.60264e-05
2.16133e-05
2.16105e-05
6.60335e-05
2.16124e-05
2.16096e-05
2.36919e-05
2.36928e-05
2.36913e-05
2.36921e-05
2.36941e-05
2.36936e-05
2.36929e-05
2.3692e-05
6.60154e-05
2.16131e-05
2.16101e-05
2.16122e-05
2.16097e-05
6.60211e-05
6.409e-05
6.07013e-05
5.53158e-05
4.67477e-05
4.67513e-05
6.07034e-05
6.40853e-05
6.41229e-05
6.07131e-05
5.53177e-05
4.67459e-05
4.67428e-05
6.07129e-05
6.41201e-05
6.40854e-05
4.67528e-05
5.53123e-05
6.07058e-05
4.67523e-05
6.4089e-05
6.07015e-05
6.41182e-05
4.67413e-05
5.53148e-05
6.0713e-05
4.67415e-05
6.41217e-05
6.07093e-05
6.6021e-05
2.16117e-05
2.16101e-05
2.16129e-05
2.16108e-05
6.60119e-05
3.62228e-05
5.6625e-05
4.05094e-05
6.03361e-05
4.05091e-05
6.0332e-05
3.62233e-05
2.02448e-05
6.35401e-05
4.92924e-05
2.02437e-05
6.35503e-05
3.62233e-05
5.66273e-05
4.05092e-05
6.03299e-05
4.05095e-05
3.62228e-05
6.03353e-05
2.02438e-05
6.35509e-05
4.92923e-05
6.35416e-05
2.02448e-05
6.60279e-05
2.16109e-05
2.16134e-05
2.16101e-05
2.16125e-05
6.60303e-05
6.41071e-05
6.07021e-05
4.6743e-05
5.53162e-05
4.67433e-05
6.41021e-05
6.07056e-05
6.40618e-05
6.06912e-05
4.67502e-05
5.53015e-05
6.06946e-05
6.40567e-05
4.67505e-05
6.60338e-05
2.16101e-05
2.16125e-05
2.16109e-05
6.60266e-05
2.16134e-05
6.41007e-05
4.67433e-05
5.53153e-05
6.07039e-05
4.67431e-05
6.07029e-05
6.41017e-05
6.40554e-05
4.67505e-05
5.52994e-05
6.0693e-05
6.0692e-05
4.67502e-05
6.40561e-05
2.3694e-05
2.36931e-05
3.62198e-05
4.05089e-05
6.03168e-05
5.66255e-05
4.05086e-05
6.03161e-05
3.62203e-05
2.02431e-05
4.9284e-05
6.35161e-05
6.35235e-05
2.0242e-05
2.0242e-05
6.35247e-05
4.92839e-05
6.35146e-05
2.02431e-05
3.62203e-05
5.66293e-05
4.05085e-05
6.03226e-05
4.0509e-05
6.03215e-05
3.62198e-05
3.62232e-05
5.66239e-05
6.03322e-05
4.05086e-05
6.03335e-05
4.05085e-05
3.62237e-05
2.02454e-05
6.35383e-05
4.92909e-05
6.35486e-05
2.02444e-05
3.62238e-05
5.66261e-05
6.03315e-05
4.05086e-05
6.03373e-05
3.62233e-05
4.05089e-05
2.02444e-05
6.35493e-05
4.92908e-05
6.35398e-05
2.02454e-05
3.6221e-05
5.66229e-05
4.05085e-05
6.03238e-05
4.05084e-05
6.03245e-05
3.62215e-05
2.02441e-05
6.35181e-05
4.92874e-05
2.0243e-05
6.35282e-05
3.62216e-05
5.66251e-05
4.05085e-05
6.03224e-05
3.62211e-05
4.05088e-05
6.03278e-05
2.0243e-05
6.35288e-05
4.92872e-05
6.35196e-05
2.02441e-05
6.60292e-05
2.16099e-05
2.16133e-05
2.1609e-05
2.16124e-05
6.60338e-05
6.41045e-05
6.06966e-05
5.53032e-05
4.67405e-05
4.67406e-05
6.06953e-05
6.40996e-05
6.4065e-05
6.07002e-05
5.53177e-05
4.67517e-05
6.06991e-05
4.6752e-05
6.40599e-05
6.40988e-05
4.67407e-05
5.5299e-05
6.06971e-05
4.67403e-05
6.06931e-05
6.41052e-05
6.40582e-05
4.67521e-05
5.53146e-05
6.07005e-05
6.06963e-05
4.67518e-05
6.40645e-05
6.6035e-05
2.16093e-05
2.16124e-05
2.16099e-05
2.16133e-05
6.60278e-05
2.36934e-05
2.36926e-05
3.62206e-05
5.66213e-05
6.03173e-05
4.05083e-05
6.03129e-05
4.0508e-05
3.62212e-05
2.02443e-05
6.35194e-05
4.92873e-05
6.35293e-05
2.02433e-05
3.62212e-05
5.66233e-05
6.03103e-05
4.05081e-05
6.03149e-05
3.62207e-05
4.05084e-05
2.02433e-05
6.35309e-05
4.92871e-05
6.35208e-05
2.02443e-05
3.62221e-05
5.66303e-05
6.03184e-05
4.05089e-05
6.03137e-05
4.05086e-05
3.62226e-05
2.02446e-05
6.35301e-05
4.92875e-05
2.02434e-05
6.35407e-05
3.62226e-05
5.66324e-05
6.03093e-05
4.05087e-05
3.62221e-05
6.03145e-05
4.0509e-05
2.02435e-05
6.35417e-05
4.92873e-05
6.3532e-05
2.02446e-05
2.36928e-05
2.36919e-05
2.36921e-05
2.36913e-05
0.000185409
0.000185416
0.000165555
0.000185412
0.000185419
0.000201425
0.000201425
6.36271e-05
7.14557e-05
7.14478e-05
9.20722e-05
7.14785e-05
7.14708e-05
6.36245e-05
0.000185409
0.000185418
0.000165557
0.00018541
0.000185417
0.000201428
0.000201429
6.36271e-05
7.14555e-05
7.1448e-05
9.20733e-05
6.36245e-05
7.14782e-05
7.1471e-05
6.36264e-05
7.14463e-05
7.14551e-05
9.20743e-05
7.14781e-05
7.14692e-05
6.36238e-05
6.36264e-05
9.1921e-05
7.14681e-05
7.1477e-05
7.14472e-05
7.14559e-05
6.36244e-05
6.36271e-05
9.19133e-05
7.14773e-05
7.14699e-05
6.3625e-05
7.14564e-05
7.14489e-05
6.36298e-05
7.14496e-05
7.14392e-05
9.20694e-05
7.14743e-05
7.14598e-05
6.36266e-05
6.36266e-05
7.14483e-05
7.14571e-05
9.20757e-05
7.14781e-05
6.36241e-05
7.14692e-05
6.3625e-05
7.14405e-05
7.14532e-05
9.20627e-05
7.14758e-05
7.14632e-05
6.36225e-05
0.000185407
0.00018542
0.000165558
0.00018541
0.000185422
0.000201426
0.000201427
0.000185407
0.000185402
0.000165541
0.000185399
0.000185411
0.00020142
0.00020142
0.000185409
0.000185415
0.000165558
0.000185412
0.000185417
0.000201423
0.000201423
0.000165554
0.000185409
0.000185419
0.000185411
0.00018542
0.000201427
0.000201428
0.000165556
0.000185408
0.00018542
0.000185408
0.000185421
0.000201428
0.000201428
0.000165541
0.000185408
0.000185404
0.000185398
0.000185406
0.000201422
0.000201422
0.000165557
0.000185409
0.000185416
0.00018541
0.000185416
0.000201425
0.000201425
7.79322e-05
5.84249e-05
8.33575e-05
5.8583e-05
5.84215e-05
8.32841e-05
7.80282e-05
6.85795e-05
6.34649e-05
5.68986e-05
5.73867e-05
6.34798e-05
5.73762e-05
6.85229e-05
6.85237e-05
5.73786e-05
5.68956e-05
6.34802e-05
6.34643e-05
5.73841e-05
6.85794e-05
7.80266e-05
5.85878e-05
5.84236e-05
8.32819e-05
5.84233e-05
8.33586e-05
7.79351e-05
7.79268e-05
8.33513e-05
5.85799e-05
5.84198e-05
8.32779e-05
5.84166e-05
7.80223e-05
6.85808e-05
6.34693e-05
5.73832e-05
5.69077e-05
5.7373e-05
6.85256e-05
6.3484e-05
7.802e-05
5.85849e-05
8.32743e-05
5.84187e-05
8.33512e-05
5.84184e-05
7.79296e-05
6.85257e-05
5.73754e-05
5.69043e-05
6.34845e-05
5.73806e-05
6.85796e-05
6.34686e-05
6.36225e-05
9.1925e-05
7.14773e-05
7.14697e-05
7.14566e-05
7.14488e-05
6.36253e-05
0.000185411
0.000185422
0.000165558
0.000185411
0.000185422
0.000201426
0.000201427
0.000185405
0.000185408
0.000165546
0.000185404
0.000185409
0.000201417
0.000201417
0.00018541
0.000185418
0.000165558
0.000185411
0.000185418
0.000201421
0.000201421
7.79316e-05
5.8583e-05
5.83941e-05
8.33533e-05
5.84197e-05
8.32835e-05
7.80272e-05
6.85798e-05
6.34647e-05
5.73867e-05
5.6898e-05
6.85236e-05
6.34796e-05
5.73762e-05
7.80261e-05
5.8587e-05
5.84224e-05
8.32827e-05
7.79345e-05
5.84218e-05
8.33588e-05
6.85237e-05
5.74039e-05
5.6895e-05
6.34891e-05
6.34642e-05
5.73839e-05
6.85778e-05
7.79274e-05
5.85791e-05
8.33501e-05
5.8418e-05
8.32764e-05
5.84147e-05
7.80233e-05
6.85814e-05
6.34691e-05
5.7383e-05
5.69066e-05
6.85249e-05
6.3484e-05
5.73728e-05
7.80212e-05
5.85839e-05
8.32736e-05
5.8417e-05
7.79303e-05
8.335e-05
5.84164e-05
6.85258e-05
5.73752e-05
5.69037e-05
6.34845e-05
6.34685e-05
5.73805e-05
6.8581e-05
6.3624e-05
9.19255e-05
7.14759e-05
7.14687e-05
7.14562e-05
7.14488e-05
6.35995e-05
7.79345e-05
8.336e-05
5.85781e-05
5.84103e-05
5.8407e-05
8.32861e-05
7.803e-05
6.85802e-05
6.347e-05
5.73762e-05
5.69097e-05
5.7366e-05
6.85258e-05
6.34836e-05
7.80296e-05
5.85831e-05
5.84091e-05
8.32837e-05
5.84087e-05
8.33611e-05
7.79389e-05
6.85245e-05
5.73687e-05
5.69061e-05
6.348e-05
5.7374e-05
6.85791e-05
6.34648e-05
7.7935e-05
5.84269e-05
8.33601e-05
5.85843e-05
5.84236e-05
8.32852e-05
7.80311e-05
6.85755e-05
6.34664e-05
5.69112e-05
5.73918e-05
5.73813e-05
6.34812e-05
6.85203e-05
6.85211e-05
5.73837e-05
5.69083e-05
6.34818e-05
5.73892e-05
6.85774e-05
6.34658e-05
7.8029e-05
5.85892e-05
5.84256e-05
8.32826e-05
5.84254e-05
8.33599e-05
7.7938e-05
7.80284e-05
8.32865e-05
5.85829e-05
5.84059e-05
7.79374e-05
5.84088e-05
8.33621e-05
6.85248e-05
6.34822e-05
5.73683e-05
5.69054e-05
5.73737e-05
6.85771e-05
6.3467e-05
7.79389e-05
5.85782e-05
5.84105e-05
8.33597e-05
5.84072e-05
8.32855e-05
7.80317e-05
6.85801e-05
5.73715e-05
6.3464e-05
5.69082e-05
6.85234e-05
5.7366e-05
6.34822e-05
7.80287e-05
5.84226e-05
8.32859e-05
5.85889e-05
7.79377e-05
5.84254e-05
8.3361e-05
6.85227e-05
6.34819e-05
5.69082e-05
5.73835e-05
5.73889e-05
6.3466e-05
6.8576e-05
6.8578e-05
5.73864e-05
6.34654e-05
5.6911e-05
6.85224e-05
5.7381e-05
6.34814e-05
7.79383e-05
5.85842e-05
5.84264e-05
8.33585e-05
5.84233e-05
8.3284e-05
7.80309e-05
6.36218e-05
9.19219e-05
7.14681e-05
7.14769e-05
7.14559e-05
7.14471e-05
6.36246e-05
6.36269e-05
9.20735e-05
7.14482e-05
7.1457e-05
7.14691e-05
6.36243e-05
7.1478e-05
7.79341e-05
8.3359e-05
5.84228e-05
5.8583e-05
8.32858e-05
5.84194e-05
7.80302e-05
6.85786e-05
6.34663e-05
5.69039e-05
5.73842e-05
6.34811e-05
5.73737e-05
6.85232e-05
6.85242e-05
5.7376e-05
5.6901e-05
6.34815e-05
6.34655e-05
5.73815e-05
6.85804e-05
7.80273e-05
5.85879e-05
8.32841e-05
5.84214e-05
8.33606e-05
5.84212e-05
7.79367e-05
7.80263e-05
5.84205e-05
8.32842e-05
5.85874e-05
7.79349e-05
5.84235e-05
8.33595e-05
6.85222e-05
6.34802e-05
5.68954e-05
5.73787e-05
6.85789e-05
6.34642e-05