/*--------------------------------*- C++ -*----------------------------------*\
| =========                 |                                                 |
| \\      /  F ield         | OpenFOAM: The Open Source CFD Toolbox           |
|  \\    /   O peration     | Version:  v1912                                 |
|   \\  /    A nd           | Website:  www.openfoam.com                      |
|    \\/     M anipulation  |                                                 |
\*---------------------------------------------------------------------------*/
FoamFile
{
    version     2.0;
    format      ascii;
    class       surfaceScalarField;
    location    "80";
    object      phi;
}
// * * * * * * * * * * * * * * * * * * * * * * * * * * * * * * * * * * * * * //

dimensions      [0 3 -1 0 0 0 0];
oriented        oriented;


internalField   nonuniform List<scalar> 
166251
(
-6.46891e-09
-1.37863e-08
0.00010021
-0.000100189
-1.38303e-09
6.01469e-08
0.000262189
-0.000262016
-2.3046e-07
-1.55376e-09
8.81145e-09
1.30664e-06
0.001126
-4.42113e-09
-9.94726e-07
3.16755e-07
-3.25559e-07
9.9627e-07
-1.29973e-06
3.15953e-07
-3.20046e-07
-3.69075e-09
0.00112512
4.22529e-09
-1.06489e-06
8.73413e-07
-8.75499e-07
1.06601e-06
1.66041e-08
3.79729e-08
0.00025638
-9.63168e-09
-0.000256272
-1.53465e-07
-1.34153e-06
-1.30674e-06
0.000274949
-0.000272854
2.73998e-07
2.79436e-07
-1.90612e-08
1.16252e-08
0.000288876
9.30763e-09
-0.000288837
-4.14936e-08
-1.90571e-08
1.16255e-08
0.000288818
9.88942e-09
-0.000288781
-3.91446e-08
1.6065e-08
4.46307e-09
0.000100204
1.37377e-08
4.46019e-09
0.000100206
1.34298e-06
1.29995e-06
0.000272857
-2.64516e-07
-2.69976e-07
1.72414e-08
-1.12997e-08
4.47233e-08
0.000288836
1.74095e-08
-8.93762e-09
4.20973e-08
0.000288789
1.62787e-10
5.88313e-08
-2.01249e-08
5.16553e-10
0.000240483
4.38479e-08
-5.2938e-09
0.000199966
5.88835e-08
-2.01534e-08
4.50964e-10
0.000240521
4.17197e-08
-4.47818e-09
-5.30147e-09
0.000200016
1.58054e-09
1.84955e-09
2.26031e-07
0.000262031
9.7705e-09
-3.51761e-09
1.34992e-06
-3.2859e-07
3.21448e-07
9.96452e-07
-3.25623e-07
3.11042e-07
-1.0004e-06
0.00112554
4.76981e-09
1.62391e-07
0.000256272
4.16195e-09
4.40818e-09
1.07184e-06
-8.81075e-07
-1.07052e-06
8.79139e-07
0.00112548
1.02363e-09
2.23515e-07
0.000262063
9.30718e-09
-1.34875e-06
1.99984e-09
1.00212e-06
-3.25884e-07
-1.00363e-06
3.16654e-07
1.35554e-06
-3.31587e-07
3.2712e-07
0.00112599
-1.49025e-08
4.88442e-09
1.60039e-07
0.000256283
9.59913e-09
1.07492e-06
-8.81237e-07
-1.07354e-06
8.79232e-07
0.00112563
1.3831e-08
0.000100212
1.30533e-06
0.000272879
-2.67487e-07
-2.72348e-07
-8.59103e-09
4.46478e-08
0.000288776
-1.59653e-08
1.46961e-08
-1.16077e-08
4.21168e-08
0.000288888
4.46836e-09
0.000100212
-6.01744e-08
0.000240513
-0.000240472
1.83948e-08
4.56742e-10
-4.01772e-08
0.000199975
-1.50361e-10
-0.000199941
0.000262187
-0.000262018
-2.30482e-07
-1.02422e-09
9.28484e-09
0.00112565
1.34717e-06
-3.86953e-09
-9.97834e-07
3.16657e-07
9.99063e-07
-3.25728e-07
-1.34038e-06
3.24283e-07
-3.28714e-07
0.00112534
4.38054e-09
-1.06504e-06
8.73475e-07
-8.72822e-07
1.069e-06
0.000256322
1.89446e-08
-1.2053e-08
-0.000256216
-1.53325e-07
6.15707e-08
2.93278e-10
3.86056e-10
-1.81574e-08
0.00024051
4.16623e-08
-5.30937e-09
0.000199999
1.89021e-09
1.50027e-09
2.26084e-07
0.00026205
8.59319e-09
-4.20404e-09
1.30948e-06
-3.20072e-07
3.21551e-07
9.99398e-07
-3.20261e-07
3.19525e-07
-9.95051e-07
0.00112662
7.3926e-09
1.59832e-07
0.000256284
5.47585e-09
4.31374e-09
1.07168e-06
-8.75583e-07
-1.06794e-06
8.76268e-07
0.00112537
5.90488e-08
-1.82405e-08
6.22498e-10
0.000240472
4.39132e-08
-4.45729e-09
-5.33516e-09
0.000199941
2.26123e-07
1.34866e-09
0.000262021
9.23934e-09
-1.34033e-06
-3.96591e-09
9.99136e-07
-3.25707e-07
-9.97861e-07
3.16656e-07
1.34719e-06
-3.28669e-07
3.24299e-07
0.00112565
4.32635e-09
1.06905e-06
-8.72794e-07
-1.06501e-06
8.73482e-07
0.00112535
-1.73713e-08
7.37891e-09
1.59852e-07
0.000256216
6.01029e-08
0.000262198
-0.000262034
-2.25261e-07
-9.94238e-10
9.28445e-09
0.00112544
-3.87357e-09
-1.33474e-06
3.18564e-07
-3.22902e-07
-9.95036e-07
3.13767e-07
-3.22888e-07
9.96256e-07
0.00112534
4.35347e-09
-1.06499e-06
8.79107e-07
-8.78371e-07
1.06899e-06
3.79306e-08
0.00025637
-9.64026e-09
-0.000256264
-1.53357e-07
0.00024052
-0.000240481
2.04656e-08
5.06978e-10
0.000199986
6.44011e-09
-1.80078e-10
-0.000199954
-5.88514e-08
1.79027e-09
2.00929e-09
2.26042e-07
0.00026206
8.92916e-09
-4.35648e-09
1.31226e-06
-3.2296e-07
3.18788e-07
9.96495e-07
-3.22889e-07
-9.94946e-07
3.13971e-07
0.00112636
-4.38291e-08
4.82896e-09
1.62262e-07
0.000256332
3.5564e-09
4.2796e-09
1.07173e-06
-8.78322e-07
-1.06789e-06
8.79118e-07
0.00112541
2.59278e-10
6.54972e-10
-2.01701e-08
0.000240518
-5.26695e-09
0.000200009
-5.89406e-08
2.23475e-07
1.31756e-09
0.000262034
9.23699e-09
-1.3347e-06
-3.96178e-09
9.96275e-07
-3.22864e-07
-9.95004e-07
3.13769e-07
1.34154e-06
-3.22855e-07
3.18577e-07
0.00112544
4.2779e-09
1.06902e-06
-8.78346e-07
-1.06495e-06
8.79117e-07
0.00112534
-4.1723e-08
-1.75212e-08
4.96586e-09
1.59933e-07
0.000256264
-2.02869e-08
5.50417e-10
0.000240481
-4.51743e-09
-5.2629e-09
0.000199954
0.000274944
-0.000272841
2.71695e-07
2.79169e-07
0.000288778
9.36556e-09
-0.00028874
-4.14193e-08
1.15886e-08
0.000288879
9.43216e-09
-0.000288842
-4.15055e-08
0.000100218
-6.47694e-09
-0.0001002
1.61067e-08
0.000100189
1.29968e-06
0.000272841
-2.64784e-07
-2.72285e-07
-8.54336e-09
4.4618e-08
0.00028874
-1.39182e-08
1.49171e-08
-8.50001e-09
4.46633e-08
0.000288842
4.47347e-09
0.0001002
6.27224e-08
0.000262219
-0.000262052
-2.30464e-07
-5.29127e-10
8.85474e-09
0.00112654
-4.30615e-09
-1.29988e-06
3.15978e-07
-3.20128e-07
-9.95039e-07
3.16828e-07
-3.25708e-07
9.96641e-07
0.00112524
4.20891e-09
-1.06233e-06
8.73476e-07
-8.72843e-07
1.06613e-06
3.79969e-08
0.000256388
-9.56574e-09
-0.000256279
-1.55927e-07
-1.3597e-10
0.000240513
-0.000240471
2.16152e-10
1.8381e-08
0.00019999
-2.23077e-10
-0.000199958
0.000240551
-0.000240507
5.06659e-10
1.83975e-08
0.000200028
6.42812e-09
-1.21501e-10
-0.000199997
1.38507e-09
-5.90421e-08
2.28686e-07
1.7852e-09
0.000262016
8.75538e-09
-4.50281e-09
1.30667e-06
-3.19998e-07
3.15971e-07
9.96288e-07
-3.25533e-07
-9.94704e-07
3.16753e-07
0.001126
3.40205e-09
4.22138e-09
1.0688e-06
-8.72678e-07
-1.06209e-06
8.76222e-07
0.00112511
-4.17078e-08
4.97632e-09
1.59863e-07
0.000256272
-6.16161e-08
2.28738e-07
7.00747e-10
0.000262052
8.80934e-09
-1.29984e-06
-4.41206e-09
9.96655e-07
-3.25681e-07
-9.9501e-07
3.16831e-07
1.30675e-06
-3.20083e-07
3.1599e-07
0.00112654
4.18782e-09
1.06616e-06
-8.72818e-07
-1.0623e-06
8.7348e-07
0.00112525
-4.17268e-08
-1.74904e-08
4.94466e-09
1.62365e-07
0.000256279
1.42361e-10
7.21446e-10
-1.82727e-08
0.000240471
-5.29177e-09
0.000199958
4.94968e-10
-1.82778e-08
0.000240507
-4.51767e-09
-5.25339e-09
0.000199996
0.000100217
-0.000100199
0.000100221
-0.000100203
0.000272854
-2.67155e-07
-2.72549e-07
-1.39127e-08
-8.62348e-09
4.47448e-08
0.000288837
-1.39141e-08
-9.1077e-09
4.23178e-08
0.000288781
0.000100198
0.000100202
4.44624e-09
1.60457e-08
-7.32244e-09
-7.36549e-09
0.000221872
1.48615e-08
1.70521e-08
-8.28814e-05
-6.87185e-09
-6.57772e-09
8.28949e-05
-8.28698e-05
-6.83516e-09
-6.64948e-09
8.28833e-05
6.25349e-09
6.24921e-09
-1.42674e-08
-1.65881e-08
0.000221889
2.95627e-08
-2.39623e-08
0.000231444
5.37585e-08
-0.000189088
-2.33566e-08
0.000189114
4.4646e-08
-8.57074e-09
-1.3833e-08
1.74431e-08
-0.000261907
2.65953e-08
0.000261965
-8.96894e-08
-3.6246e-08
8.90917e-08
4.27491e-08
0.000231488
-5.54607e-08
2.95131e-08
-2.19937e-08
0.000231379
5.40569e-08
-0.000189043
-2.13675e-08
0.000189067
4.22352e-08
-9.06073e-09
-1.38311e-08
1.74205e-08
-0.000261807
2.67239e-08
0.000261872
-9.47868e-08
-3.63557e-08
9.40797e-08
4.2727e-08
0.000231423
-5.56884e-08
-1.39313e-08
-6.40849e-09
0.000100224
-1.15326e-08
-6.40684e-09
0.000100224
-0.000221872
6.83022e-09
8.80325e-09
-1.18825e-08
-1.89052e-08
0.000221887
7.35815e-09
8.28857e-05
6.33664e-09
7.33826e-09
8.2868e-05
6.14075e-09
1.73097e-08
1.70243e-08
-4.8263e-09
8.28974e-05
-8.24332e-09
8.2885e-05
-0.000231442
2.10896e-08
-2.40115e-08
-5.30912e-08
0.000231486
2.439e-08
0.000189089
-3.23161e-08
0.000261905
9.1708e-08
4.54624e-08
9.67313e-09
-3.64434e-08
-1.64273e-08
0.000288865
5.40391e-08
0.000189115
-8.69879e-08
-3.35544e-08
0.000261966
-0.000231379
2.58701e-08
-3.18312e-08
-5.81936e-08
0.000231424
2.18504e-08
0.000189039
-2.92724e-08
0.000261814
8.88825e-08
4.53256e-08
1.20159e-08
-4.40827e-08
-1.8987e-08
0.000288828
5.4028e-08
0.000189069
-1.00359e-07
-4.16018e-08
0.00026188
-0.000147125
7.07724e-10
-1.83312e-08
2.45559e-10
0.000147143
1.29637e-09
0.000175851
1.89923e-11
-1.97953e-08
0.000233205
7.44797e-10
5.79863e-08
2.04166e-08
4.20578e-10
7.50148e-11
-5.74538e-08
0.00024052
1.02914e-09
1.92173e-11
0.000175872
2.22088e-09
-6.06564e-08
0.000233245
-8.09771e-05
-1.6472e-08
8.09938e-05
-2.05604e-08
0.000272948
5.36226e-08
-1.71246e-10
-4.01229e-08
0.0002
-5.45952e-08
0.000272988
-0.000147201
6.79012e-10
-1.84742e-08
3.11005e-10
0.000147219
1.29675e-09
0.000175888
-1.77532e-08
0.000233292
7.30982e-10
5.81078e-08
2.0439e-08
4.70128e-10
-5.74644e-08
0.000240558
1.24334e-09
0.000175909
2.28602e-09
-6.0791e-08
0.000233333
-8.10237e-05
-1.66464e-08
8.10406e-05
-1.83832e-08
0.000273062
5.37976e-08
-2.2333e-10
6.46598e-09
-3.79216e-08
0.000200048
-5.47059e-08
0.000273102
-1.16263e-08
0.000100231
-0.000221881
6.84853e-09
6.82775e-09
-1.64689e-08
-1.43296e-08
0.000221898
7.33674e-09
8.28726e-05
6.28301e-09
7.39462e-09
8.28848e-05
6.16547e-09
1.71449e-08
1.48379e-08
-6.55929e-09
8.2886e-05
-6.52229e-09
8.28982e-05
-2.6545e-08
-0.000231383
2.33217e-08
-5.31962e-08
0.000231423
2.39748e-08
0.00018904
0.000261799
-2.96262e-08
4.28286e-08
9.16662e-08
-4.14523e-08
9.28972e-09
-1.65242e-08
0.000288813
-3.61476e-08
-9.22802e-08
0.00026186
5.15346e-08
0.000189066
-0.000231457
2.15524e-08
-2.91831e-08
-5.79402e-08
0.000231508
2.21902e-08
0.000189095
-3.20246e-08
0.000261955
9.42035e-08
4.27187e-08
1.2364e-08
-3.90117e-08
1.37612e-08
-1.6318e-08
0.000288917
5.63376e-08
0.000189122
-9.49317e-08
-3.62546e-08
0.000262018
-6.43117e-09
0.000100232
-1.31334e-09
1.98421e-08
0.000147122
1.08554e-09
-1.80814e-08
3.38628e-10
5.88952e-08
-0.00017585
-6.62289e-10
0.000175869
-0.000233193
2.04482e-08
2.25808e-09
0.000233231
-6.07431e-08
7.83514e-10
5.79252e-08
5.01898e-10
0.000147141
2.0527e-08
8.09755e-05
-0.00027294
1.86969e-08
0.000272978
-5.45576e-08
-5.30149e-09
4.38308e-08
5.36358e-08
8.09947e-05
-0.000147197
-1.84332e-08
7.43677e-10
2.06565e-10
0.000147215
-1.78337e-08
0.000233289
6.43027e-10
6.07728e-08
1.23505e-09
0.000175885
5.00116e-11
6.09253e-10
1.83636e-08
3.05771e-11
-6.26814e-08
0.000240554
1.12503e-09
2.11978e-09
-6.32209e-08
0.000233333
6.28554e-11
0.000175904
-8.10246e-05
-1.67313e-08
8.10415e-05
-1.82912e-08
0.000273068
5.37784e-08
-1.69757e-10
-3.78737e-08
0.000200031
-5.47661e-08
0.000273107
-0.000147121
6.29215e-10
-2.03933e-08
5.17104e-10
0.000147141
1.3424e-09
0.000175849
-1.99388e-08
0.000233193
7.87374e-10
5.80477e-08
1.83038e-08
7.03313e-10
-6.00833e-08
0.000240513
1.1313e-09
0.000175868
2.25037e-09
-6.06653e-08
0.000233232
-8.09752e-05
-1.86673e-08
8.09944e-05
-2.06402e-08
0.00027294
5.37375e-08
-1.65597e-10
6.45919e-09
-4.01174e-08
0.000199975
-5.45342e-08
0.000272978
-1.29558e-09
1.78118e-08
0.000147128
1.22513e-09
-2.01181e-08
2.67223e-10
5.87841e-08
-0.000175849
-7.06287e-10
0.00017587
-0.000233199
1.84339e-08
2.30738e-09
0.000233243
-6.33665e-08
6.88613e-10
6.05688e-08
2.9668e-10
0.000147145
1.84048e-08
8.09816e-05
-0.000272951
1.65922e-08
0.000272993
-5.71556e-08
-5.24653e-09
-4.48947e-09
4.16471e-08
5.6222e-08
8.09985e-05
-0.000147202
-1.84595e-08
7.05955e-10
2.8063e-10
0.000147219
-1.77702e-08
0.000233297
6.52416e-10
6.06789e-08
1.29213e-09
0.000175885
9.89057e-12
3.96199e-10
2.04197e-08
6.46944e-11
-6.00418e-08
0.000240558
1.19477e-09
2.2516e-09
-6.3255e-08
0.00023334
3.95135e-11
0.000175906
-8.10276e-05
-1.66738e-08
8.10445e-05
-1.83231e-08
0.000273081
5.62159e-08
-1.52117e-10
-4.01607e-08
0.000200043
-5.72144e-08
0.000273124
-0.000147127
6.61188e-10
-1.83777e-08
3.28622e-10
0.000147145
1.31129e-09
0.000175849
-1.79186e-08
0.0002332
6.87966e-10
6.06805e-08
2.03712e-08
7.54637e-10
-6.00035e-08
0.00024052
1.26617e-09
0.00017587
2.3038e-09
-6.33011e-08
0.000233243
-8.09812e-05
-1.65571e-08
8.09981e-05
-1.85228e-08
0.000272951
5.63198e-08
-2.05259e-10
6.45241e-09
-3.78867e-08
0.000199986
-5.71402e-08
0.000272994
-7.33871e-09
-7.37761e-09
0.000221864
1.49093e-08
1.69786e-08
-8.28646e-05
-6.84239e-09
-6.64479e-09
8.28781e-05
-8.28833e-05
-6.8307e-09
-6.67414e-09
8.28968e-05
6.15793e-09
6.1327e-09
-1.43579e-08
-1.65386e-08
0.000221881
-2.39376e-08
2.95696e-08
0.000231362
5.62592e-08
-0.000189031
-2.33414e-08
0.000189057
-8.46889e-09
4.45222e-08
1.73105e-08
-0.000261763
2.66073e-08
0.000261828
-3.88832e-08
-9.48192e-08
4.53805e-08
9.41768e-08
0.000231409
-5.79804e-08
2.94691e-08
-2.39912e-08
0.000231442
5.15421e-08
-0.000189091
-2.33276e-08
0.000189117
4.45639e-08
-8.4162e-09
-1.38646e-08
1.48489e-08
-0.000261917
2.66905e-08
0.000261974
-3.37098e-08
-9.22922e-08
4.00319e-08
9.15826e-08
0.000231482
-5.31219e-08
4.46372e-09
-1.37882e-08
0.000100209
-0.000221864
6.80512e-09
6.80329e-09
-1.43028e-08
-1.64798e-08
0.000221881
7.4122e-09
8.28644e-05
6.25147e-09
7.44567e-09
8.28831e-05
6.23297e-09
1.50323e-08
1.71079e-08
-6.57226e-09
8.28778e-05
-6.58708e-09
8.28965e-05
-2.65808e-08
-0.000231362
2.3286e-08
-5.79385e-08
0.000231409
2.40866e-08
0.00018903
0.000261763
-2.96614e-08
4.53849e-08
9.41936e-08
-4.14121e-08
9.30977e-09
-1.89249e-08
0.000288777
-3.88854e-08
-9.48223e-08
0.000261829
5.63603e-08
0.000189056
-0.000231442
2.32801e-08
-2.66653e-08
-5.3085e-08
0.000231482
2.4139e-08
0.00018909
-2.95685e-08
0.000261917
9.15957e-08
4.0054e-08
9.3646e-09
-4.14894e-08
1.16072e-08
-1.65666e-08
0.000288879
5.16415e-08
0.000189116
-9.22961e-08
-3.36921e-08
0.000261975
-6.48288e-09
0.000100218
1.77971e-08
-1.11388e-09
0.000147127
1.22369e-09
2.36137e-10
-1.81357e-08
-5.04412e-12
5.89433e-08
-0.000233196
1.84613e-08
2.31022e-09
0.000233239
-6.3315e-08
-0.00017585
-6.72215e-10
-7.85426e-12
0.000175869
7.04458e-10
6.06054e-08
4.89288e-12
3.05982e-10
0.000147145
1.84024e-08
8.09816e-05
-0.000272949
1.65996e-08
0.000272991
-5.72001e-08
-5.27511e-09
4.1638e-08
5.62107e-08
8.09985e-05
1.78632e-08
-1.2962e-09
0.000147201
1.18331e-09
4.83758e-10
-1.81306e-08
6.15176e-08
-0.000233287
1.84364e-08
2.21905e-09
0.00023333
-6.33388e-08
-0.000175885
-6.61751e-10
0.000175904
6.84701e-10
6.06487e-08
2.84207e-10
0.000147219
1.83722e-08
8.10267e-05
-0.000273063
1.66334e-08
0.000273104
-5.47555e-08
-5.22069e-09
-4.48499e-09
4.164e-08
5.37211e-08
8.10436e-05
-0.000147127
-1.84002e-08
5.31261e-10
3.1149e-10
0.000147145
-1.79272e-08
0.000233196
6.95183e-10
6.07657e-08
1.29062e-09
0.000175849
1.07302e-11
6.62173e-10
1.83168e-08
3.43231e-11
-6.01229e-08
0.000240512
1.25018e-09
2.28135e-09
-6.32722e-08
0.000233239
2.63328e-11
0.000175868
-8.09812e-05
-1.65925e-08
8.09981e-05
-1.85077e-08
0.000272949
5.62999e-08
-2.18531e-10
-3.79334e-08
0.000199989
-5.71995e-08
0.000272991
-0.000147201
-1.8379e-08
6.60746e-10
3.00069e-10
0.000147218
-1.79713e-08
0.000233287
6.84853e-10
6.07425e-08
1.29194e-09
0.000175885
4.95429e-10
1.83109e-08
-6.26945e-08
0.000240551
1.21917e-09
2.21017e-09
-6.32935e-08
0.00023333
0.000175904
-8.10263e-05
-1.6594e-08
8.10432e-05
-1.85017e-08
0.000273064
5.38386e-08
-1.39121e-10
6.42945e-09
-3.79473e-08
0.000200028
-5.47271e-08
0.000273104
-0.000221871
6.83953e-09
6.80046e-09
-1.42091e-08
-1.65273e-08
0.000221888
7.38637e-09
8.28812e-05
6.29954e-09
7.43055e-09
8.28695e-05
6.28969e-09
1.50109e-08
1.72025e-08
-6.57767e-09
8.28946e-05
-6.65363e-09
8.2883e-05
-0.000231444
-2.65503e-08
2.33202e-08
-5.54245e-08
0.000231488
2.40807e-08
0.000189088
-2.96766e-08
0.000261908
4.27622e-08
8.91237e-08
-4.14844e-08
9.31323e-09
1.16049e-08
-1.90296e-08
0.000288876
5.38558e-08
-3.62276e-08
-8.96804e-08
0.000261966
0.000189114
-0.000231379
-2.66713e-08
2.13292e-08
-5.56538e-08
0.000231423
2.2111e-08
0.000189042
-2.96329e-08
0.000261807
4.27392e-08
9.41042e-08
-3.9146e-08
9.89591e-09
1.16017e-08
-1.90324e-08
0.000288818
5.41505e-08
-3.63394e-08
-9.47837e-08
0.000261873
0.000189067
0.000100216
0.00010022
-4.26353e-09
-4.1916e-09
0.0011319
2.24295e-11
0.00113771
-6.67965e-12
-6.21186e-10
0.00113817
-1.83485e-10
0.00114591
-4.16993e-09
-4.17831e-09
0.00113211
-5.45647e-11
0.00113779
-8.07483e-11
0.00113821
0.00114595
-4.36543e-09
6.50812e-10
0.00113227
6.16011e-09
7.42228e-10
0.00113808
-1.10043e-11
3.60891e-09
0.00113851
1.24538e-10
1.83731e-09
0.00114651
-4.05759e-09
-4.13664e-09
0.00113229
-4.90832e-12
0.00113812
-1.67942e-11
8.13105e-10
0.00113858
8.2076e-10
0.00114654
-4.24581e-09
-4.18881e-09
0.0011319
4.06449e-11
0.00113771
4.98115e-13
4.90427e-10
0.00113817
2.42431e-11
0.00114592
-4.18768e-09
-4.18716e-09
0.00113211
-1.13757e-11
0.00113779
-2.48924e-11
0.00113821
0.00114595
3.38648e-09
-2.4843e-07
0.000272561
-1.5093e-08
2.28708e-07
2.58541e-10
-3.04867e-11
-0.000271994
-9.36185e-10
-4.04495e-09
0.000272641
-0.000261341
-2.53666e-07
1.73157e-09
0.000261528
1.23312e-09
-1.73771e-09
9.97517e-09
0.000273362
-1.5802e-08
-2.39196e-07
0.000272787
-0.000262365
-2.42313e-07
0.000262542
1.59839e-07
4.93117e-09
-0.000270398
-1.20002e-08
0.000270539
0.000273539
1.51653e-07
1.51818e-07
0.000253245
-2.67196e-07
-2.72593e-07
-0.000268989
1.5341e-07
0.000269338
-0.000269431
1.53694e-07
0.000269778
0.000253441
-0.000253253
-1.50646e-07
-1.56462e-07
0.000253449
2.71719e-07
2.79259e-07
0.000274966
-1.51669e-07
0.000268994
-1.49156e-07
0.000269439
0.00026935
0.000269783
-0.000272572
2.53666e-07
-6.57638e-10
1.93888e-09
0.000273389
2.48463e-07
0.000261352
8.88358e-10
6.45243e-10
0.000272009
5.04679e-09
-4.71356e-10
-2.27881e-07
3.6377e-11
0.000262202
-4.23088e-09
1.77593e-09
0.000261543
-1.93509e-09
0.000272661
9.30957e-09
-0.000272789
2.4223e-07
0.000273535
2.41887e-07
0.000262365
0.000270388
1.30074e-08
-1.5064e-07
-9.53959e-09
0.000256376
0.000270524
0.000262545
-0.000272621
2.51234e-07
1.62309e-10
-8.00198e-10
0.000273446
2.45922e-07
0.000261421
8.29669e-10
-1.51618e-10
0.000272037
-4.54323e-10
-2.25288e-07
0.000262231
-1.52353e-09
1.83333e-09
0.000261609
0.000272689
-0.000272831
2.42382e-07
9.1449e-09
0.000273581
2.39422e-07
0.000262424
1.31462e-08
0.000270403
-9.63899e-09
-1.53381e-07
0.000256391
0.000262604
0.000270539
-1.53601e-07
-0.000253266
-1.53501e-07
0.000253462
2.74359e-07
2.79208e-07
0.000274993
0.000269419
-1.51916e-07
-1.51644e-07
0.00026905
0.000269774
0.0002694
7.60813e-11
-2.48483e-07
0.000272558
-4.21899e-09
2.26103e-07
7.77878e-10
-0.000272008
-1.4499e-09
0.000272645
-0.000261328
-2.53685e-07
1.74774e-09
0.000261518
8.61442e-10
1.93948e-09
0.00027337
-2.39252e-07
0.00027276
-1.57696e-08
-0.000262337
-2.42154e-07
0.000262515
7.3412e-09
1.59817e-07
-1.19518e-08
-0.00027034
0.000270476
0.000273507
-0.000272617
2.51033e-07
-3.66934e-09
1.53677e-08
0.000273426
2.4336e-07
0.000261422
-1.74322e-09
-1.23372e-09
0.000272021
7.34631e-09
5.11102e-10
-2.30483e-07
-4.29073e-10
0.000262217
-1.77819e-08
4.19952e-09
0.000261606
-4.48503e-09
0.000272668
1.44701e-08
-0.000272851
2.42523e-07
0.000273609
2.36494e-07
0.000262434
0.000270427
1.59741e-08
-1.58419e-07
-1.20695e-08
0.000256398
0.000270561
0.000262613
-0.000272553
7.06141e-10
2.5106e-07
-7.95916e-10
0.000273371
3.95179e-10
0.000272005
2.4589e-07
0.000261331
8.4159e-10
-2.27831e-07
-5.26662e-10
0.000262189
-1.39709e-09
0.000272647
1.74105e-09
0.000261519
-0.000272763
2.42162e-07
1.19629e-08
0.000273507
2.3923e-07
0.000262337
1.57222e-08
0.00027034
-1.19995e-08
-1.5328e-07
0.000256322
0.000262515
0.000270476
4.16007e-10
-2.4591e-07
0.000272563
-1.43535e-09
2.23453e-07
7.54241e-10
-0.000272008
-1.44347e-09
0.000272657
-0.000261349
-2.51067e-07
1.80904e-09
0.000261534
8.15449e-10
-7.97124e-10
0.00027338
-1.30836e-08
-2.39313e-07
0.000272777
-0.00026236
-2.42222e-07
0.000262537
1.59903e-07
4.91904e-09
-0.000270382
-9.25782e-09
0.000270515
0.000273521
-0.000272626
2.53606e-07
-2.32134e-09
1.26972e-08
0.000273434
2.48515e-07
0.000261432
-1.71007e-09
-4.15248e-10
0.000272023
6.55154e-09
-2.35935e-10
-2.27897e-07
-3.04633e-10
0.000262228
-1.51142e-08
4.19958e-09
0.000261618
-3.81359e-09
0.000272676
-0.000272865
1.19128e-08
2.44889e-07
0.000273618
2.41781e-07
0.000262457
1.58436e-08
0.000270469
-1.55788e-07
-9.4759e-09
0.00025644
0.000270603
0.00026264
-0.000272563
6.94338e-10
2.5106e-07
-7.86432e-10
0.000273381
3.57741e-10
0.000272008
2.45893e-07
0.000261349
8.06625e-10
-2.25228e-07
-4.74017e-10
0.0002622
-1.42415e-09
0.000272659
1.80683e-09
0.000261534
-0.000272777
2.42232e-07
9.26626e-09
0.000273521
2.3931e-07
0.00026236
1.30443e-08
0.000270382
-9.57391e-09
-1.53323e-07
0.00025637
0.000262538
0.000270516
1.49018e-07
1.51926e-07
0.000253235
-2.72334e-07
-2.64829e-07
-0.000269384
1.53598e-07
0.000269731
-0.000269009
1.50931e-07
0.000269361
0.000253428
-1.5358e-07
-0.000253235
-1.50914e-07
0.000253429
2.71715e-07
2.79189e-07
0.000274944
0.000269384
-1.51918e-07
-1.49009e-07
0.00026901
0.000269732
0.000269362
2.9036e-09
-2.4859e-07
0.00027261
-1.50822e-08
2.28745e-07
4.45341e-10
-0.000272023
1.18205e-09
0.000272661
-0.000261412
-2.53554e-07
4.1891e-09
0.000261597
-1.76165e-09
1.2747e-08
0.000273411
-1.30371e-08
-2.41781e-07
0.000272839
-0.000262422
-2.44946e-07
0.000262607
1.62335e-07
4.8974e-09
-0.00027042
-9.24084e-09
0.000270553
0.000273594
-0.000272561
-2.29411e-09
2.53557e-07
1.2727e-08
0.000273366
-9.74438e-11
0.000271994
4.00014e-09
2.48514e-07
0.000261341
7.71646e-10
-2.30467e-07
-1.40096e-11
3.41959e-11
0.000262186
-1.2355e-08
-1.2561e-09
0.000272638
4.16842e-09
0.000261528
-0.000272787
1.20076e-08
2.42274e-07
0.000273542
2.39256e-07
0.000262365
1.57814e-08
0.000270398
-1.5343e-07
-9.55096e-09
0.00025638
0.00027054
0.000262545
-0.00027261
-1.7504e-09
2.53562e-07
1.27729e-08
0.000273411
-2.37156e-09
0.000272024
2.48561e-07
0.000261412
-1.79682e-09
-2.3044e-07
-2.67842e-10
0.00026222
-1.50726e-08
0.000272664
4.17388e-09
0.000261598
-0.000272839
2.44954e-07
9.25434e-09
0.000273594
2.41781e-07
0.000262422
1.30004e-08
0.00027042
-9.50416e-09
-1.55897e-07
0.000256388
0.000262607
0.000270554
-0.000253245
-1.53391e-07
-1.53671e-07
0.000253441
2.74007e-07
2.7945e-07
0.000274949
-1.51639e-07
0.000268989
-1.51808e-07
0.000269431
0.000269339
0.000269778
1.38555e-08
4.44427e-09
0.000100208
-0.000100226
1.38223e-08
4.47804e-09
0.000100206
-0.000100224
1.34024e-06
1.30266e-06
0.00027286
-2.64644e-07
-2.72524e-07
-0.000274966
1.48737e-08
-8.97073e-09
4.22792e-08
0.000288835
-0.00028887
1.73333e-08
-9.00958e-09
4.21955e-08
0.000288789
-0.000288826
4.48176e-11
5.88466e-08
-2.01139e-08
7.38996e-10
0.000240484
-0.000240523
4.15793e-08
-5.32524e-09
0.000199974
-0.000200006
5.8886e-08
-2.01404e-08
3.46339e-10
0.000240522
-0.000240561
1.35373e-09
2.3786e-09
2.28668e-07
0.000262031
-0.000262205
9.05698e-09
-3.68008e-09
1.34706e-06
-3.25786e-07
3.21337e-07
9.98893e-07
-3.20111e-07
3.13682e-07
-9.97868e-07
-0.00112554
4.87622e-09
1.59898e-07
0.000256274
-0.000256382
2.36954e-09
4.02848e-09
1.07462e-06
-8.81114e-07
-1.07057e-06
8.8192e-07
-0.00112548
1.2702e-09
2.2874e-07
0.000262064
-0.000262233
-9.51641e-10
1.07485e-06
-8.81276e-07
-1.07075e-06
8.81984e-07
-0.00112562
6.15105e-08
1.92082e-10
4.09214e-10
-1.81085e-08
0.00024051
-0.000240554
4.15864e-08
-5.35746e-09
0.000199999
-0.000200031
1.76397e-09
1.77174e-09
2.28704e-07
0.000262049
-0.00026222
3.45852e-09
-3.96119e-09
1.30958e-06
-3.22959e-07
3.18906e-07
9.99387e-07
-3.25749e-07
3.16788e-07
-1.00054e-06
-0.00112662
7.32695e-09
1.5986e-07
0.000256284
-0.000256392
-8.78304e-11
9.37115e-09
1.07185e-06
-8.75428e-07
-1.07057e-06
8.76438e-07
-0.00112538
5.89663e-08
-1.81068e-08
4.91855e-10
0.000240472
-0.000240513
4.38464e-08
-4.50025e-09
-5.34953e-09
0.000199942
-0.000199976
2.26213e-07
1.0797e-09
0.00026202
-0.000262187
1.43665e-08
-1.34022e-06
-3.82768e-09
9.99101e-07
-3.25714e-07
-9.97888e-07
3.1663e-07
1.3473e-06
-3.286e-07
3.24367e-07
-0.00112566
9.40813e-09
1.0691e-06
-8.75618e-07
-1.06783e-06
8.73512e-07
-0.00112534
-1.73079e-08
7.36371e-09
1.5986e-07
0.000256215
-0.000256321
1.59994e-08
0.000100189
-0.00010021
1.29973e-06
0.000272841
-2.67338e-07
-2.72274e-07
-0.000274941
-8.4902e-09
4.44928e-08
0.000288741
-0.000288778
-1.3852e-08
1.48341e-08
-1.10967e-08
4.46359e-08
0.000288842
-0.000288876
4.46211e-09
0.0001002
-0.000100219
1.10859e-09
-6.14039e-08
2.26082e-07
1.78204e-09
0.000262019
-0.000262186
8.76029e-09
-3.63598e-09
1.3066e-06
-3.20027e-07
3.15912e-07
9.96111e-07
-3.25589e-07
-9.9488e-07
3.16634e-07
-0.001126
-1.49944e-09
3.78114e-09
1.06602e-06
-8.72645e-07
-1.06204e-06
8.73443e-07
-0.00112511
-4.1614e-08
4.89882e-09
1.62269e-07
0.000256269
-0.00025638
-5.8944e-08
2.23522e-07
5.04684e-10
0.000262053
-0.000262217
3.9686e-09
1.06622e-06
-8.72744e-07
-1.06219e-06
8.73569e-07
-0.00112524
1.2613e-11
4.17944e-10
-2.01358e-08
0.000240471
-0.000240513
-5.304e-09
0.000199958
-0.00019999
4.01135e-10
-1.80695e-08
0.000240508
-0.000240549
-1.16364e-08
-6.44845e-09
-1.16383e-08
-6.37295e-09
-0.00022187
6.90865e-09
6.68803e-09
-1.65587e-08
-1.66721e-08
7.32489e-09
8.28808e-05
6.21336e-09
-8.28943e-05
7.54069e-09
8.28688e-05
6.17711e-09
-8.28825e-05
1.72406e-08
1.72863e-08
-0.00022189
-6.67891e-09
-6.75383e-09
-0.000231441
2.14317e-08
-2.66791e-08
-5.81321e-08
2.20304e-08
0.000189089
-0.000189114
-2.95398e-08
0.000261905
9.17412e-08
4.01572e-08
-0.000261965
9.96133e-09
-3.91681e-08
-1.66032e-08
5.64877e-08
-0.000231488
-9.49136e-08
-3.35825e-08
-0.000231377
2.14281e-08
-2.66513e-08
-5.82617e-08
2.20037e-08
0.00018904
-0.000189065
-2.96927e-08
0.000261808
9.40639e-08
4.54502e-08
-0.000261876
9.9761e-09
-3.92377e-08
-1.91338e-08
5.64351e-08
-0.000231424
-9.49031e-08
-3.8976e-08
-0.000147125
6.46834e-10
-2.04621e-08
4.66671e-10
1.3485e-09
0.000175852
-5.18695e-11
-0.000175873
-1.97789e-08
0.000233204
7.0699e-10
5.8026e-08
-0.000233243
2.04812e-08
4.20364e-10
-4.50264e-11
-6.00523e-08
1.08556e-09
-0.000147145
-6.16901e-11
2.25356e-09
-6.06594e-08
-8.09774e-05
-1.87673e-08
-2.04581e-08
0.000272948
5.3635e-08
-0.000272986
2.16106e-10
-4.02984e-08
-8.09968e-05
-5.70807e-08
-0.000147201
7.75876e-10
-1.8448e-08
1.21908e-09
0.000175888
-0.00017591
-1.78281e-08
0.000233292
6.07261e-08
-0.000233335
2.04995e-08
3.5893e-10
-6.00551e-08
-0.000147218
-6.32843e-08
-0.000147197
-1.85121e-08
4.90832e-10
2.97544e-10
-1.78203e-08
0.00023329
6.90054e-10
6.06561e-08
-0.000233333
1.30044e-09
0.000175885
-1.4012e-11
-0.000175905
8.87662e-10
1.8488e-08
-6.34045e-11
-6.27859e-08
1.20458e-09
-0.000147215
2.23786e-09
-6.33805e-08
-3.04712e-11
-8.10247e-05
-1.67088e-08
-1.83265e-08
0.000273068
5.37148e-08
-0.000273108
-1.66412e-10
-3.78546e-08
-8.10418e-05
-5.47498e-08
-0.000147122
6.89595e-10
-2.04704e-08
4.72122e-10
1.27737e-09
0.00017585
-0.000175869
-1.98349e-08
0.000233193
7.05893e-10
5.80315e-08
-0.000233231
1.8445e-08
3.72901e-10
-6.01804e-08
1.06338e-09
-0.000147142
2.20453e-09
-6.06938e-08
-8.09759e-05
-1.87863e-08
-2.04318e-08
0.00027294
5.36225e-08
-0.000272977
-1.53612e-10
6.38379e-09
-4.01487e-08
-8.09953e-05
-5.45782e-08
-1.38625e-08
-0.000221864
6.81881e-09
6.78032e-09
-1.42789e-08
-1.649e-08
7.38257e-09
8.28646e-05
6.18261e-09
-8.28782e-05
7.45295e-09
8.28833e-05
6.10645e-09
-8.28968e-05
1.50561e-08
1.70867e-08
-0.000221882
-6.67048e-09
-6.72394e-09
-2.65588e-08
-0.000231362
2.34014e-08
-5.80523e-08
2.3968e-08
0.000189031
-0.000189057
0.000261762
-2.96849e-08
4.54667e-08
9.41304e-08
-0.000261828
-4.15093e-08
9.37115e-09
-1.89769e-08
-3.88964e-08
-9.48809e-08
5.62283e-08
-0.000231409
-0.000231443
2.34176e-08
-2.66497e-08
-5.32436e-08
2.42376e-08
0.000189091
-0.00018912
-3.20938e-08
0.000261916
9.15483e-08
4.01793e-08
-0.000261971
9.42127e-09
-4.15231e-08
1.16132e-08
-1.66162e-08
5.14611e-08
-0.000231485
-9.23206e-08
-3.36414e-08
-6.44246e-09
-0.000147124
-2.04536e-08
6.10575e-10
2.55787e-10
-1.983e-08
0.000233196
6.42595e-10
6.05258e-08
-0.000233237
1.30292e-09
0.000175847
-5.79519e-11
-0.000175868
6.88153e-10
2.05006e-08
-5.01883e-11
-6.26398e-08
1.23428e-09
-0.000147144
2.20759e-09
-6.31999e-08
-6.91831e-11
-8.09821e-05
-1.6675e-08
-1.83047e-08
0.000272948
5.36866e-08
-0.000272988
-1.92651e-10
-3.7986e-08
-8.09991e-05
-5.47283e-08
-0.000147197
-2.04636e-08
7.87387e-10
-1.98454e-08
0.000233288
6.0612e-08
-0.000233329
1.20583e-09
0.000175884
-0.000175904
3.14646e-10
1.84147e-08
-6.01296e-08
-0.000147216
-6.31753e-08
-4.19132e-09
-9.38344e-09
-0.00113228
-5.4642e-09
-1.9253e-09
-0.00113807
-3.47376e-10
-5.15311e-09
-0.0011385
-4.79667e-09
-5.06123e-09
-0.00114649
-4.86695e-10
-0.00113812
-2.98215e-09
-0.00114653
1.12407e-09
-4.40467e-09
-0.0011319
-6.26063e-10
-0.0011377
-3.50977e-10
-1.00879e-08
-0.00113816
-9.98522e-09
-0.00114591
-3.13075e-10
-0.00113821
-0.00114596
-0.000253252
-1.53378e-07
-1.5119e-07
2.71484e-07
2.79397e-07
-1.51665e-07
0.000268994
-0.000269341
-1.4938e-07
0.000269435
-0.000269787
-0.00025344
-0.000272572
2.51108e-07
-9.79741e-10
1.93662e-09
2.45867e-07
0.000261356
9.61143e-10
-0.000261543
1.41086e-09
0.000272009
4.72084e-09
-0.000272667
-1.71767e-10
-2.30467e-07
-1.5406e-10
-4.2056e-09
-0.000273391
1.90292e-09
-2.17386e-09
9.19132e-09
-0.000272783
2.3965e-07
2.36716e-07
0.000262368
-0.000262545
0.00027039
1.32246e-08
-0.000270523
-1.53312e-07
-9.67075e-09
-0.000273535
-0.000272624
2.51189e-07
5.9313e-10
2.45922e-07
0.000261423
-0.000261608
1.41587e-10
0.000272038
-0.000272686
-7.20179e-10
-2.30464e-07
-0.000273444
-0.000272619
2.53664e-07
-3.45236e-09
1.81728e-08
2.48552e-07
0.000261419
-1.69005e-09
-0.000261604
-8.47952e-10
0.000272021
7.00502e-09
-0.000272674
2.81122e-10
-2.27898e-07
-4.68763e-10
-1.75628e-08
-0.000273425
4.20723e-09
-4.71592e-09
9.23123e-09
-0.000272845
2.42424e-07
2.39061e-07
0.000262431
-0.000262611
0.000270422
1.5745e-08
-0.000270559
-1.53378e-07
-9.59561e-09
-0.000273608
-0.000272553
9.11101e-10
2.5108e-07
-7.84319e-10