/*--------------------------------*- C++ -*----------------------------------*\
| =========                 |                                                 |
| \\      /  F ield         | OpenFOAM: The Open Source CFD Toolbox           |
|  \\    /   O peration     | Version:  v1912                                 |
|   \\  /    A nd           | Website:  www.openfoam.com                      |
|    \\/     M anipulation  |                                                 |
\*---------------------------------------------------------------------------*/
FoamFile
{
    version     2.0;
    format      ascii;
    class       volVectorField;
    location    "80";
    object      U;
}
// * * * * * * * * * * * * * * * * * * * * * * * * * * * * * * * * * * * * * //

dimensions      [0 1 -1 0 0 0 0];


internalField   nonuniform List<vector> 
57566
(
(-3.87282e-06 2.92198e-06 0.0731968)
(3.58191e-07 2.3097e-05 0.103299)
(2.28582e-06 -1.34716e-06 0.106935)
(-4.66076e-07 -1.70947e-06 0.107351)
(-6.02604e-06 1.73248e-05 0.0972113)
(7.25365e-05 7.25656e-05 0.106164)
(4.83736e-06 5.68666e-06 0.0909504)
(5.69052e-06 4.83869e-06 0.0909479)
(2.531e-06 4.40126e-06 0.0731315)
(4.44141e-06 2.58959e-06 0.073133)
(6.70677e-05 6.70658e-05 0.106089)
(5.78198e-06 5.94211e-06 0.0908809)
(5.92699e-06 5.81016e-06 0.0908781)
(-1.58002e-07 9.82367e-06 0.0958186)
(2.845e-07 9.2034e-06 0.0849262)
(1.43196e-07 9.83494e-06 0.0958185)
(-2.96114e-07 9.27462e-06 0.0849278)
(-3.19982e-07 2.33029e-05 0.103228)
(2.40023e-06 1.42917e-06 0.106935)
(4.60032e-06 1.90441e-05 0.0971022)
(-4.25568e-07 1.7377e-06 0.107352)
(3.14047e-07 2.33177e-05 0.103227)
(-2.37018e-06 1.42266e-06 0.106935)
(-4.65e-06 1.90923e-05 0.097102)
(4.51439e-07 1.73238e-06 0.107352)
(-2.60637e-06 4.4841e-06 0.0731346)
(-6.70837e-05 6.70385e-05 0.106089)
(-5.84239e-06 5.98087e-06 0.0908795)
(-5.88201e-06 5.75071e-06 0.0908801)
(-4.36896e-06 2.5267e-06 0.0731312)
(-1.06273e-05 -2.75308e-08 0.095881)
(-8.2501e-06 1.90557e-06 0.0849947)
(-2.31083e-05 -3.39502e-07 0.103299)
(1.41566e-06 -2.34909e-06 0.106935)
(1.73719e-06 4.37166e-07 0.107351)
(-1.72645e-05 5.9707e-06 0.0972122)
(9.90058e-06 -1.25605e-07 0.0958188)
(9.24755e-06 2.87296e-07 0.0849273)
(2.33177e-05 -2.92002e-07 0.103227)
(1.36909e-06 2.27434e-06 0.106935)
(1.90442e-05 4.65468e-06 0.0971016)
(1.73455e-06 -4.80373e-07 0.107352)
(9.95954e-06 2.02598e-07 0.0958187)
(9.2065e-06 -2.98928e-07 0.0849253)
(2.33354e-05 3.52683e-07 0.103227)
(1.40342e-06 -2.34072e-06 0.106935)
(1.72621e-06 4.34946e-07 0.107351)
(1.90654e-05 -4.65985e-06 0.0971007)
(2.3089e-05 -3.30599e-07 0.1033)
(-1.41086e-06 -2.34212e-06 0.106935)
(-1.74349e-06 4.31877e-07 0.107351)
(1.72998e-05 6.01719e-06 0.0972117)
(1.05865e-05 -1.53553e-08 0.0958822)
(8.30774e-06 1.92262e-06 0.0849937)
(-2.32961e-05 -2.87925e-07 0.103227)
(-1.33935e-06 2.29951e-06 0.106935)
(-1.89998e-05 4.62102e-06 0.0971023)
(-1.72381e-06 -4.56368e-07 0.107352)
(-9.83549e-06 -1.32107e-07 0.095818)
(-9.18963e-06 2.87252e-07 0.0849266)
(-2.33247e-05 3.4257e-07 0.103227)
(-1.39954e-06 -2.33571e-06 0.106935)
(-1.72798e-06 4.31243e-07 0.107351)
(-1.91064e-05 -4.68584e-06 0.0971025)
(-9.904e-06 1.83775e-07 0.0958179)
(-9.28794e-06 -3.29004e-07 0.0849272)
(-7.25464e-05 7.25867e-05 0.106164)
(-4.77417e-06 5.66704e-06 0.0909496)
(-5.71979e-06 4.85157e-06 0.0909499)
(-2.98927e-06 3.97597e-06 0.0731961)
(4.39093e-06 -2.51849e-06 0.0731298)
(6.70312e-05 -6.70926e-05 0.106089)
(5.98914e-06 -5.81391e-06 0.0908766)
(5.83502e-06 -6.03291e-06 0.0908808)
(2.58542e-06 -4.49627e-06 0.0731343)
(-3.642e-07 2.30946e-05 0.1033)
(-2.2809e-06 -1.34827e-06 0.106935)
(4.51626e-07 -1.71347e-06 0.107351)
(6.01196e-06 1.7337e-05 0.0972115)
(3.04647e-08 1.06133e-05 0.0958807)
(-1.9344e-06 8.31115e-06 0.084994)
(-2.01202e-08 1.06093e-05 0.0958812)
(1.91468e-06 8.31579e-06 0.0849937)
(-3.08893e-07 -2.33356e-05 0.103226)
(2.27824e-06 -1.336e-06 0.106935)
(-4.66553e-07 -1.71282e-06 0.107351)
(4.677e-06 -1.91008e-05 0.0971029)
(3.15021e-07 -2.33277e-05 0.103226)
(-2.27477e-06 -1.33623e-06 0.106935)
(4.51263e-07 -1.70905e-06 0.107351)
(-4.67814e-06 -1.9103e-05 0.0971018)
(-1.54107e-07 -9.97292e-06 0.0958184)
(3.18293e-07 -9.28428e-06 0.0849276)
(1.67861e-07 -9.97682e-06 0.095818)
(-3.27404e-07 -9.28668e-06 0.0849273)
(3.98639e-06 2.96082e-06 0.0731951)
(2.95976e-06 3.98785e-06 0.0731943)
(-6.7064e-05 -6.70787e-05 0.106089)
(-6.03483e-06 -5.86583e-06 0.0908805)
(-5.8493e-06 -6.02669e-06 0.090879)
(-4.50064e-06 -2.6092e-06 0.0731332)
(-2.60467e-06 -4.49919e-06 0.0731327)
(4.38922e-06 -2.51625e-06 0.07313)
(-3.85048e-06 -3.86925e-06 0.0867777)
(1.96094e-06 2.62071e-06 0.0703475)
(2.64431e-06 1.95199e-06 0.0703412)
(-2.24791e-06 -2.52118e-06 0.0702949)
(-2.51145e-06 -2.26334e-06 0.0702889)
(3.85726e-06 3.83767e-06 0.0868302)
(-1.28782e-05 -6.14253e-06 0.0955954)
(4.1594e-06 2.75838e-06 0.0842951)
(-5.96932e-06 -5.82801e-06 0.0908806)
(2.10981e-05 1.11268e-05 0.100642)
(-2.20773e-05 -1.29551e-05 0.100565)
(-4.77292e-06 -2.56009e-06 0.0842395)
(1.30293e-05 5.70603e-06 0.0956649)
(-6.13824e-06 -1.28966e-05 0.0955879)
(2.80045e-06 4.18675e-06 0.0842897)
(-5.81688e-06 -5.97309e-06 0.0908791)
(1.1172e-05 2.10997e-05 0.100639)
(-1.29303e-05 -2.20386e-05 0.100562)
(-2.56791e-06 -4.81267e-06 0.0842355)
(5.76051e-06 1.30309e-05 0.0956571)
(-2.8881e-06 -3.86892e-06 0.0731975)
(-3.97375e-06 -2.94685e-06 0.0731961)
(-3.81781e-06 -3.83915e-06 0.086831)
(2.54992e-06 2.27239e-06 0.070296)
(2.251e-06 2.46009e-06 0.0702875)
(3.87601e-06 3.82756e-06 0.0867774)
(-2.60699e-06 -1.96095e-06 0.0703479)
(-1.95248e-06 -2.61591e-06 0.0703426)
(-5.69959e-06 -1.3113e-05 0.0956616)
(2.62205e-06 4.79384e-06 0.0842412)
(1.29908e-05 2.20671e-05 0.100567)
(-5.60171e-06 -4.72872e-06 0.0909514)
(6.25094e-06 1.29555e-05 0.0955985)
(-2.74494e-06 -4.16724e-06 0.0842946)
(-1.10827e-05 -2.10641e-05 0.10064)
(-1.2984e-05 -5.73275e-06 0.0956614)
(4.74185e-06 2.49437e-06 0.0842338)
(2.20291e-05 1.28923e-05 0.100559)
(-4.86164e-06 -5.69381e-06 0.0909491)
(1.28703e-05 6.04384e-06 0.0955842)
(-4.12876e-06 -2.75045e-06 0.0842918)
(-2.11413e-05 -1.11998e-05 0.100642)
(7.37093e-07 -4.48217e-06 0.0789602)
(-2.55047e-07 4.31296e-06 0.0808501)
(-4.19466e-07 9.36966e-06 0.0938683)
(4.44827e-08 -1.05548e-05 0.0958827)
(-1.15265e-06 4.58827e-06 0.0789103)
(1.23321e-07 -4.03037e-06 0.080893)
(-1.98907e-07 -1.02728e-05 0.0939379)
(5.07937e-07 -4.00523e-06 0.0699696)
(-6.61835e-07 7.64162e-06 0.0890035)
(-1.90926e-06 -8.24057e-06 0.084995)
(-1.70603e-06 4.30371e-06 0.0698996)
(-1.15053e-06 -7.87069e-06 0.0890791)
(-7.25041e-07 -4.53409e-06 0.0789615)
(2.62431e-07 4.32064e-06 0.080851)
(3.93835e-07 9.41123e-06 0.0938686)
(-2.78343e-08 -1.0564e-05 0.0958823)
(1.15091e-06 4.64397e-06 0.0789142)
(-1.11709e-07 -4.03856e-06 0.0808935)
(2.16586e-07 -1.03266e-05 0.0939363)
(-4.67757e-07 -4.06785e-06 0.0699677)
(6.54486e-07 7.69583e-06 0.0890043)
(1.93185e-06 -8.29417e-06 0.0849937)
(1.69221e-06 4.37204e-06 0.0699017)
(1.17505e-06 -7.91669e-06 0.0890772)
(2.96914e-06 -3.98589e-06 0.073196)
(3.8386e-06 -3.8536e-06 0.0868305)
(-2.52409e-06 2.25617e-06 0.0702897)
(-2.27173e-06 2.49155e-06 0.070295)
(-3.88025e-06 3.85087e-06 0.0867778)
(2.62283e-06 -1.95113e-06 0.0703424)
(1.946e-06 -2.62225e-06 0.0703477)
(5.69202e-06 -1.30067e-05 0.0956578)
(-2.56527e-06 4.77182e-06 0.0842356)
(-1.2982e-05 2.20805e-05 0.100561)
(5.67692e-06 -4.83978e-06 0.0909485)
(1.11011e-05 -2.10934e-05 0.100639)
(-6.17937e-06 1.28748e-05 0.0955879)
(2.75594e-06 -4.15519e-06 0.0842911)
(1.30423e-05 -5.73838e-06 0.0956655)
(-4.75179e-06 2.52699e-06 0.0842398)
(-2.20416e-05 1.29241e-05 0.100565)
(4.74923e-06 -5.60035e-06 0.090952)
(-1.2908e-05 6.13896e-06 0.0955956)
(4.13075e-06 -2.73622e-06 0.0842958)
(2.10904e-05 -1.11418e-05 0.100643)
(3.86419e-06 -2.89271e-06 0.0731975)
(4.5846e-06 1.16039e-06 0.0789108)
(9.86894e-06 1.70808e-07 0.0958187)
(-4.10817e-06 -1.16717e-07 0.0808922)
(-1.03127e-05 2.06379e-07 0.0939374)
(4.38563e-06 2.46116e-07 0.0808521)
(9.34157e-06 4.37629e-07 0.0938675)
(-4.45457e-06 -7.04704e-07 0.0789613)
(4.27173e-06 1.74993e-06 0.0698989)
(-7.88017e-06 1.14497e-06 0.0890792)
(9.17684e-06 -2.86758e-07 0.0849255)
(7.61972e-06 6.83369e-07 0.0890027)
(-3.95352e-06 -4.8287e-07 0.0699708)
(-4.52473e-06 7.72422e-07 0.0789602)
(9.44464e-06 -3.66515e-07 0.0938687)
(4.41987e-06 -2.44556e-07 0.0808522)
(-1.05936e-05 6.22687e-08 0.0958814)
(4.67388e-06 -1.10667e-06 0.0789132)
(-1.02932e-05 -1.58019e-07 0.0939367)
(-4.0972e-06 1.3234e-07 0.0808919)
(-4.07624e-06 5.43251e-07 0.0699671)
(7.69646e-06 -6.18232e-07 0.0890041)
(-8.27956e-06 -1.93166e-06 0.0849944)
(4.36638e-06 -1.62289e-06 0.0699011)
(-7.90221e-06 -1.13177e-06 0.0890773)
(-4.43886e-06 -6.92428e-07 0.0789611)
(4.43195e-06 2.69203e-07 0.0808519)
(9.42653e-06 4.46522e-07 0.0938676)
(-1.05638e-05 -3.76917e-09 0.0958811)
(4.61382e-06 1.1866e-06 0.0789106)
(-4.07879e-06 -8.517e-08 0.080892)
(-1.02538e-05 2.07041e-07 0.0939375)
(-3.94396e-06 -4.72701e-07 0.0699705)
(7.69158e-06 6.80714e-07 0.0890028)
(-8.22956e-06 1.90221e-06 0.0849946)
(4.29988e-06 1.78167e-06 0.0698986)
(-7.84022e-06 1.14282e-06 0.0890793)
(-4.64825e-06 1.14926e-06 0.0789131)
(-9.81358e-06 1.52563e-07 0.0958179)
(4.04932e-06 -1.40311e-07 0.0808933)
(1.03556e-05 2.296e-07 0.0939368)
(-4.3099e-06 2.39081e-07 0.0808508)
(-9.38696e-06 4.03239e-07 0.0938678)
(4.52361e-06 -7.25725e-07 0.0789607)
(-4.38335e-06 1.68065e-06 0.0699028)
(7.92501e-06 1.16321e-06 0.0890785)
(-9.25684e-06 -3.06748e-07 0.0849273)
(-7.67524e-06 6.37816e-07 0.0890041)
(4.0506e-06 -4.7479e-07 0.0699694)
(4.53626e-06 7.44154e-07 0.0789617)
(-9.42075e-06 -3.78483e-07 0.0938681)
(-4.33196e-06 -2.69393e-07 0.080851)
(1.05544e-05 5.68422e-08 0.0958823)
(-4.65235e-06 -1.13476e-06 0.078914)
(1.02993e-05 -1.85689e-07 0.0939371)
(4.02978e-06 1.23846e-07 0.0808935)
(4.07646e-06 4.86442e-07 0.0699683)
(-7.67993e-06 -6.29387e-07 0.0890039)
(8.23946e-06 -1.90512e-06 0.0849953)
(-4.36418e-06 -1.65807e-06 0.0699015)
(7.90453e-06 -1.14919e-06 0.0890787)
(4.49851e-06 -7.10728e-07 0.0789605)
(-4.35927e-06 2.60575e-07 0.0808505)
(-9.46308e-06 4.11143e-07 0.0938679)
(1.05239e-05 9.77783e-09 0.0958822)
(-4.68796e-06 1.16781e-06 0.0789129)
(4.01609e-06 -9.94893e-08 0.0808931)
(1.03066e-05 2.29783e-07 0.0939369)
(4.0428e-06 -4.46403e-07 0.0699691)
(-7.74033e-06 6.32549e-07 0.0890042)
(8.28805e-06 1.92001e-06 0.0849936)
(-4.41417e-06 1.71617e-06 0.0699025)
(7.89032e-06 1.1655e-06 0.0890786)
(3.844e-06 -3.86469e-06 0.0867773)
(-1.9426e-06 2.64671e-06 0.0703414)
(-2.64967e-06 1.936e-06 0.0703477)
(2.26275e-06 -2.4931e-06 0.0702884)
(2.48236e-06 -2.27362e-06 0.0702949)
(-3.86147e-06 3.86081e-06 0.0868301)
(1.28544e-05 -6.165e-06 0.095587)
(-4.14137e-06 2.79457e-06 0.0842904)
(5.92506e-06 -5.77945e-06 0.0908767)
(-2.11021e-05 1.11328e-05 0.10064)
(4.77224e-06 -2.52939e-06 0.0842339)
(2.20357e-05 -1.29518e-05 0.100561)
(-1.30216e-05 5.72819e-06 0.0956575)
(6.1066e-06 -1.28982e-05 0.095595)
(-2.80413e-06 4.13575e-06 0.0842953)
(5.79632e-06 -5.96636e-06 0.0908809)
(-1.11668e-05 2.11118e-05 0.100642)
(1.29224e-05 -2.20486e-05 0.100565)
(2.49902e-06 -4.78937e-06 0.0842398)
(-5.73555e-06 1.30217e-05 0.0956648)
(2.58195e-06 -4.49468e-06 0.0731346)
(-3.87821e-06 2.91496e-06 0.0731966)
(-3.83122e-06 3.83387e-06 0.0868301)
(2.26613e-06 -2.5083e-06 0.0702883)
(2.49986e-06 -2.27482e-06 0.0702948)
(3.89403e-06 -3.91282e-06 0.0867773)
(-1.94563e-06 2.63501e-06 0.0703413)
(-2.63367e-06 1.94258e-06 0.0703475)
(-1.29861e-05 5.70563e-06 0.0956575)
(4.80148e-06 -2.5648e-06 0.0842337)
(2.20768e-05 -1.29668e-05 0.100561)
(-4.75207e-06 5.65019e-06 0.0909496)
(-2.10831e-05 1.1129e-05 0.10064)
(1.29361e-05 -6.22185e-06 0.095587)
(-4.1368e-06 2.76733e-06 0.0842903)
(-5.71294e-06 1.299e-05 0.0956648)
(2.53745e-06 -4.81784e-06 0.0842396)
(1.29402e-05 -2.20882e-05 0.100565)
(-5.69526e-06 4.81926e-06 0.0909499)
(6.16696e-06 -1.29791e-05 0.095595)
(-2.77372e-06 4.1334e-06 0.0842952)
(-1.11628e-05 2.10952e-05 0.100642)
(-2.98719e-06 3.99151e-06 0.0731959)
(-1.14071e-06 -4.6617e-06 0.0789135)
(-1.51064e-07 -9.88938e-06 0.0958184)
(-1.99851e-07 1.03194e-05 0.0939365)
(1.01102e-07 4.11121e-06 0.0808924)
(-3.98582e-07 -9.41275e-06 0.0938678)
(-2.55755e-07 -4.40153e-06 0.0808527)
(7.27071e-07 4.5422e-06 0.0789606)
(-1.68391e-06 -4.38173e-06 0.0699032)
(-1.17734e-06 7.92493e-06 0.0890787)
(2.99136e-07 -9.25813e-06 0.0849277)
(-6.47994e-07 -7.6777e-06 0.0890043)
(4.68382e-07 4.05662e-06 0.0699698)
(1.13755e-06 -4.6598e-06 0.0789144)
(1.66667e-07 -9.88625e-06 0.0958181)
(2.0702e-07 1.03417e-05 0.0939367)
(-9.97525e-08 4.11756e-06 0.0808925)
(3.91694e-07 -9.4114e-06 0.093868)
(2.6474e-07 -4.40502e-06 0.0808528)
(-7.25904e-07 4.53224e-06 0.0789615)
(1.65372e-06 -4.3768e-06 0.0699019)
(1.14084e-06 7.93646e-06 0.0890775)
(-3.08325e-07 -9.25067e-06 0.0849275)
(6.21396e-07 -7.671e-06 0.0890043)
(-4.93625e-07 4.05344e-06 0.069968)
(7.2983e-07 4.52676e-06 0.0789604)
(-3.96135e-07 -9.51148e-06 0.0938678)
(-2.555e-07 -4.44091e-06 0.0808525)
(2.986e-08 1.05662e-05 0.0958807)
(-1.15021e-06 -4.68291e-06 0.0789132)
(-1.98525e-07 1.02778e-05 0.0939365)
(1.18487e-07 4.08519e-06 0.0808921)
(4.55048e-07 4.05351e-06 0.0699695)
(-6.50303e-07 -7.73582e-06 0.0890044)
(-1.92761e-06 8.30134e-06 0.0849939)
(-1.71412e-06 -4.40703e-06 0.0699029)
(-1.17152e-06 7.90156e-06 0.0890788)
(-7.22398e-07 4.50435e-06 0.0789613)
(4.02281e-07 -9.48335e-06 0.0938681)
(2.59613e-07 -4.43365e-06 0.0808525)
(-1.92045e-08 1.05556e-05 0.0958812)
(1.14984e-06 -4.70094e-06 0.0789142)
(2.04716e-07 1.02913e-05 0.0939368)
(-9.85633e-08 4.09451e-06 0.0808923)
(-4.70948e-07 4.04417e-06 0.0699677)
(6.16158e-07 -7.74365e-06 0.0890044)
(1.9094e-06 8.29098e-06 0.0849936)
(1.68907e-06 -4.41022e-06 0.0699016)
(1.14021e-06 7.89641e-06 0.0890776)
(-4.48479e-06 -2.60158e-06 0.0731334)
(-2.59661e-06 -4.4805e-06 0.0731329)
(3.83754e-06 3.81759e-06 0.0868302)
(-2.24776e-06 -2.5172e-06 0.0702947)
(-2.50693e-06 -2.26406e-06 0.0702887)
(-3.90016e-06 -3.91871e-06 0.0867777)
(1.96033e-06 2.63849e-06 0.0703474)
(2.66282e-06 1.94999e-06 0.0703411)
(1.30028e-05 5.6744e-06 0.0956649)
(-4.78619e-06 -2.57962e-06 0.0842393)
(-2.21208e-05 -1.29755e-05 0.100565)
(4.80872e-06 5.67056e-06 0.0909504)
(-1.29524e-05 -6.2144e-06 0.0955954)
(2.10803e-05 1.11151e-05 0.100642)
(4.15737e-06 2.76326e-06 0.084295)
(5.7258e-06 1.30039e-05 0.0956572)
(-2.586e-06 -4.82519e-06 0.0842354)
(-1.29521e-05 -2.20813e-05 0.100562)
(5.67752e-06 4.81804e-06 0.0909479)
(-6.21163e-06 -1.29697e-05 0.0955879)
(1.11595e-05 2.10831e-05 0.100639)
(2.80564e-06 4.1844e-06 0.0842896)
(3.9821e-06 2.9652e-06 0.0731949)
(2.95805e-06 3.97799e-06 0.073194)
(-1.90968e-06 1.92841e-06 0.107568)
(-7.89936e-07 -9.59563e-07 0.107735)
(9.56978e-07 7.9624e-07 0.107735)
(7.78423e-07 -7.7889e-07 0.10784)
(1.90688e-06 1.9107e-06 0.107568)
(8.02876e-07 -9.60827e-07 0.107735)
(-9.57591e-07 8.0249e-07 0.107735)
(-7.77533e-07 -7.71541e-07 0.10784)
(-1.92018e-06 -1.89208e-06 0.107568)
(9.40282e-07 -7.93444e-07 0.107735)
(-7.97614e-07 9.31138e-07 0.107735)
(7.78606e-07 7.71671e-07 0.10784)
(1.90962e-06 -1.91056e-06 0.107568)
(-9.80573e-07 -7.89883e-07 0.107735)
(7.97502e-07 9.70256e-07 0.107736)
(-7.77012e-07 7.74905e-07 0.10784)
(-1.91221e-06 1.92946e-06 0.107568)
(-7.90014e-07 -9.62753e-07 0.107735)
(9.60382e-07 7.96584e-07 0.107735)
(7.82163e-07 -7.80141e-07 0.10784)
(1.90902e-06 1.91541e-06 0.107568)
(7.99743e-07 -9.62877e-07 0.107735)
(-9.57999e-07 7.99833e-07 0.107735)
(-7.81229e-07 -7.78714e-07 0.10784)
(9.40343e-08 -8.72439e-05 0.10558)
(-3.16952e-07 -2.33216e-05 0.103226)
(4.99304e-07 8.5312e-05 0.106012)
(4.83194e-07 2.37137e-05 0.102293)
(-3.24939e-07 -8.35214e-05 0.105949)
(-7.25277e-07 -2.2985e-05 0.102201)
(5.71909e-07 9.0648e-05 0.10567)
(1.88998e-06 -9.6259e-05 0.104726)
(-1.7867e-06 2.25628e-05 0.10017)
(4.65848e-06 -1.90636e-05 0.0971028)
(-4.74934e-06 9.16386e-05 0.103467)
(6.83947e-06 -9.48751e-05 0.103365)
(-7.4122e-08 -2.22332e-05 0.100055)
(-9.67367e-07 9.831e-05 0.104844)
(-1.93361e-05 -1.93568e-05 0.101706)
(-6.7083e-05 -6.70991e-05 0.106089)
(2.20595e-05 7.72278e-05 0.104732)
(7.71922e-05 2.20585e-05 0.104731)
(-2.21085e-05 -7.70676e-05 0.104651)
(-7.69899e-05 -2.20956e-05 0.104649)
(2.04278e-05 2.04027e-05 0.101799)
(-2.03311e-05 -2.05197e-05 0.101799)
(-7.25579e-05 -7.25816e-05 0.106164)
(7.70515e-05 2.2083e-05 0.104652)
(2.20957e-05 7.69544e-05 0.104648)
(1.9383e-05 1.93394e-05 0.101706)
(-7.72182e-05 -2.2122e-05 0.104731)
(-2.20284e-05 -7.71779e-05 0.104733)
(5.52815e-07 -9.06906e-05 0.10567)
(-7.52426e-07 2.29869e-05 0.102203)
(-3.25123e-07 8.34618e-05 0.105949)
(3.51141e-07 -2.3086e-05 0.1033)
(9.98151e-08 8.7181e-05 0.105581)
(4.57762e-07 -2.3698e-05 0.102294)
(5.02816e-07 -8.53445e-05 0.106013)
(-1.00579e-06 -9.83152e-05 0.104844)
(-1.20792e-07 2.22185e-05 0.100056)
(6.82711e-06 9.49403e-05 0.103365)
(-5.99023e-06 -1.71703e-05 0.0972127)
(-4.72765e-06 -9.15717e-05 0.103467)
(1.8911e-06 9.62853e-05 0.104727)
(-1.80119e-06 -2.25437e-05 0.100171)
(-5.77929e-07 -9.07154e-05 0.105669)
(7.3422e-07 2.30043e-05 0.102201)
(3.38912e-07 8.34847e-05 0.105949)
(-3.50775e-07 -2.30824e-05 0.1033)
(-1.02936e-07 8.71748e-05 0.10558)
(-4.51762e-07 -2.37387e-05 0.102292)
(-5.14291e-07 -8.53274e-05 0.106012)
(9.43987e-07 -9.82783e-05 0.104844)
(1.04765e-07 2.22373e-05 0.100054)
(-6.84407e-06 9.49714e-05 0.103363)
(6.01656e-06 -1.7303e-05 0.0972103)
(-1.91038e-06 9.6322e-05 0.104726)
(1.81825e-06 -2.26017e-05 0.100169)
(4.68504e-06 -9.15739e-05 0.103466)
(2.04195e-05 -2.04124e-05 0.1018)
(7.25791e-05 -7.25446e-05 0.106165)
(-7.70519e-05 2.20987e-05 0.104649)
(-2.2124e-05 7.70163e-05 0.104651)
(7.71765e-05 -2.20472e-05 0.104731)
(-1.93994e-05 1.93367e-05 0.101707)
(2.20778e-05 -7.72239e-05 0.104733)
(8.7196e-05 -8.03794e-08 0.10558)
(2.33065e-05 3.42932e-07 0.103227)
(-8.52986e-05 -5.18716e-07 0.106012)
(-2.36969e-05 -4.78414e-07 0.102293)
(8.35186e-05 3.38052e-07 0.105949)
(2.30209e-05 7.44195e-07 0.102202)
(-9.06803e-05 -5.69359e-07 0.105669)
(9.63083e-05 -1.86781e-06 0.104726)
(-2.25278e-05 1.78255e-06 0.10017)
(1.90232e-05 -4.64234e-06 0.0971006)
(-9.16128e-05 4.68886e-06 0.103466)
(2.22369e-05 1.00662e-07 0.100055)
(-9.8273e-05 9.65502e-07 0.104844)
(9.49235e-05 -6.81525e-06 0.103363)
(-9.06264e-05 5.81041e-07 0.10567)
(2.30087e-05 -7.18772e-07 0.102202)
(8.34958e-05 -3.28223e-07 0.105949)
(-2.30856e-05 3.6664e-07 0.1033)
(8.72568e-05 7.98806e-08 0.10558)
(-2.3699e-05 4.86041e-07 0.102293)
(-8.53204e-05 4.99409e-07 0.106012)
(-9.83588e-05 -8.88704e-07 0.104844)
(2.21646e-05 -8.31842e-08 0.100055)
(9.4928e-05 6.84897e-06 0.103363)
(-1.73506e-05 -5.99912e-06 0.0972116)
(-9.15982e-05 -4.68171e-06 0.103467)
(9.62413e-05 1.904e-06 0.104726)
(-2.27056e-05 -1.79641e-06 0.10017)
(-9.06909e-05 -5.76198e-07 0.105669)
(8.34985e-05 3.30017e-07 0.105949)
(2.30213e-05 7.3646e-07 0.102202)
(-2.30747e-05 -3.5133e-07 0.1033)
(8.71821e-05 -9.39822e-08 0.10558)
(-8.53095e-05 -5.26508e-07 0.106012)
(-2.36799e-05 -4.8846e-07 0.102293)
(-9.8272e-05 9.67174e-07 0.104844)
(2.22297e-05 9.34501e-08 0.100055)
(9.49133e-05 -6.78487e-06 0.103363)
(-1.72211e-05 5.95917e-06 0.0972123)
(9.62985e-05 -1.85852e-06 0.104726)
(-2.25444e-05 1.78225e-06 0.10017)
(-9.16148e-05 4.7106e-06 0.103466)
(-8.71851e-05 -1.05606e-07 0.10558)
(-2.32927e-05 3.27146e-07 0.103227)
(8.53104e-05 -5.09271e-07 0.106012)
(2.36784e-05 -4.58727e-07 0.102293)
(-8.34903e-05 3.28471e-07 0.105949)
(-2.30424e-05 7.23548e-07 0.102201)
(9.06866e-05 -5.67458e-07 0.105669)
(-9.63122e-05 -1.89947e-06 0.104727)
(2.25385e-05 1.81017e-06 0.10017)
(-1.90657e-05 -4.65966e-06 0.0971024)
(9.15963e-05 4.73681e-06 0.103467)
(-9.49404e-05 -6.83148e-06 0.103365)
(-2.2233e-05 8.67946e-08 0.100055)
(9.82675e-05 9.87022e-07 0.104844)
(9.06267e-05 5.71783e-07 0.10567)
(-2.29837e-05 -7.33182e-07 0.102201)
(-8.34773e-05 -3.24355e-07 0.105949)
(2.30838e-05 3.66079e-07 0.1033)
(-8.72412e-05 8.50934e-08 0.10558)
(2.36967e-05 4.70874e-07 0.102294)
(8.53348e-05 5.04325e-07 0.106012)
(9.83015e-05 -9.44952e-07 0.104845)
(-2.21946e-05 -9.83135e-08 0.100054)
(-9.49004e-05 6.85313e-06 0.103365)
(1.72613e-05 -5.96296e-06 0.0972135)
(-9.6276e-05 1.89659e-06 0.104726)
(9.1593e-05 -4.71477e-06 0.103468)
(2.26007e-05 -1.78122e-06 0.100171)
(9.0701e-05 -5.69739e-07 0.105669)
(-8.34708e-05 3.19971e-07 0.105949)
(-2.30404e-05 7.20249e-07 0.102201)
(2.30587e-05 -3.381e-07 0.1033)
(-8.7169e-05 -1.16192e-07 0.10558)
(8.53249e-05 -5.20446e-07 0.106012)
(2.36712e-05 -4.64095e-07 0.102293)
(9.82693e-05 9.94508e-07 0.104844)
(-2.22346e-05 8.14156e-08 0.100055)
(-9.49274e-05 -6.80212e-06 0.103365)
(1.72621e-05 5.99344e-06 0.0972118)
(-9.63041e-05 -1.8845e-06 0.104726)
(2.25533e-05 1.81223e-06 0.10017)
(9.16015e-05 4.74972e-06 0.103467)
(1.93073e-05 -1.94042e-05 0.101706)
(6.70534e-05 -6.71138e-05 0.106089)
(-2.20281e-05 7.71846e-05 0.104731)
(-7.72416e-05 2.20793e-05 0.104732)
(7.70047e-05 -2.21208e-05 0.104651)
(2.20753e-05 -7.70652e-05 0.104649)
(-2.03987e-05 2.04209e-05 0.101799)
(-2.0381e-05 2.04041e-05 0.101799)
(-7.2555e-05 7.25943e-05 0.106164)
(2.20576e-05 -7.70413e-05 0.104649)
(7.6979e-05 -2.20994e-05 0.104651)
(-2.20445e-05 7.71954e-05 0.104731)
(1.93186e-05 -1.94143e-05 0.101706)
(-7.72535e-05 2.2097e-05 0.104732)
(-7.49197e-08 -8.72555e-05 0.10558)
(3.17636e-07 -2.33077e-05 0.103226)
(-5.21268e-07 8.52868e-05 0.106012)
(-4.98869e-07 2.36574e-05 0.102293)
(3.21617e-07 -8.35428e-05 0.105949)
(7.06587e-07 -2.30483e-05 0.1022)
(-5.8777e-07 9.06262e-05 0.105669)
(-1.85924e-06 -9.62434e-05 0.104726)
(1.7834e-06 2.25968e-05 0.100169)
(-4.65343e-06 -1.90611e-05 0.0971016)
(4.74352e-06 9.16294e-05 0.103466)
(-6.82098e-06 -9.49075e-05 0.103363)
(7.74628e-08 -2.22339e-05 0.100054)
(9.62794e-07 9.83375e-05 0.104844)
(5.65403e-07 9.06645e-05 0.10567)
(-3.21278e-07 -8.34925e-05 0.105949)
(-7.10213e-07 -2.30142e-05 0.102201)
(3.65513e-07 2.30905e-05 0.103299)
(1.0033e-07 -8.72239e-05 0.10558)
(4.99404e-07 8.53316e-05 0.106012)
(4.96551e-07 2.36826e-05 0.102293)
(-9.73652e-07 9.83195e-05 0.104844)
(-6.42788e-08 -2.22345e-05 0.100055)
(6.81568e-06 -9.48614e-05 0.103365)
(-6.00874e-06 1.72855e-05 0.0972114)
(1.88491e-06 -9.62493e-05 0.104726)
(-4.76342e-06 9.16428e-05 0.103467)
(-1.7822e-06 2.25814e-05 0.10017)
(-5.8881e-07 9.06433e-05 0.105669)
(3.19337e-07 -8.35129e-05 0.105949)
(6.93597e-07 -2.30448e-05 0.1022)
(-3.62982e-07 2.30726e-05 0.1033)
(-8.81818e-08 -8.72359e-05 0.10558)
(-5.14119e-07 8.53062e-05 0.106012)
(-5.09544e-07 2.36578e-05 0.102293)
(9.73306e-07 9.83394e-05 0.104844)
(6.96013e-08 -2.22392e-05 0.100054)
(-6.79326e-06 -9.48936e-05 0.103363)
(5.99006e-06 1.73e-05 0.0972116)
(-1.84459e-06 -9.62361e-05 0.104726)
(1.78481e-06 2.26078e-05 0.100169)
(4.75675e-06 9.16358e-05 0.103466)
(2.04071e-05 2.03836e-05 0.101799)
(7.25406e-05 7.25708e-05 0.106164)
(-2.20912e-05 -7.70403e-05 0.104651)
(-7.69641e-05 -2.20772e-05 0.104649)
(-1.93485e-05 -1.9368e-05 0.101706)
(2.20724e-05 7.72391e-05 0.104732)
(7.72027e-05 2.2074e-05 0.104731)
(2.56796e-06 4.48214e-06 0.0731352)
(4.42343e-06 2.59696e-06 0.0731335)
(6.70805e-05 6.70822e-05 0.106089)
(5.79974e-06 6.01743e-06 0.0908821)
(6.03969e-06 5.80331e-06 0.090879)
(-1.66356e-07 9.89358e-06 0.0958184)
(3.03839e-07 9.2662e-06 0.0849277)
(1.21848e-07 9.90359e-06 0.0958182)
(-3.35484e-07 2.33106e-05 0.103227)
(2.37486e-06 1.49604e-06 0.106935)
(4.67935e-06 1.90486e-05 0.0971029)
(-5.02361e-07 1.74479e-06 0.107352)
(3.19929e-07 2.33244e-05 0.103227)
(4.51734e-07 1.75825e-06 0.107352)
(9.95042e-06 -1.362e-07 0.0958188)
(9.15694e-06 2.88916e-07 0.0849268)
(2.33441e-05 -3.07433e-07 0.103227)
(1.37087e-06 2.2253e-06 0.106935)
(1.91365e-05 4.63017e-06 0.0971012)
(1.71984e-06 -4.42991e-07 0.107352)
(9.95357e-06 1.62936e-07 0.0958187)
(9.15357e-06 -2.92404e-07 0.0849254)
(2.33622e-05 3.41769e-07 0.103227)
(1.44247e-06 -2.34198e-06 0.106935)
(1.77073e-06 4.45664e-07 0.107351)
(1.91039e-05 -4.651e-06 0.0971005)
(4.34947e-06 -2.54343e-06 0.07313)
(6.70353e-05 -6.70479e-05 0.106089)
(5.98383e-06 -5.78949e-06 0.0908767)
(5.80461e-06 -6.03461e-06 0.0908808)
(2.58208e-06 -4.44893e-06 0.0731346)
(-3.3904e-07 -2.33008e-05 0.103226)
(2.27879e-06 -1.40612e-06 0.106935)
(-4.43655e-07 -1.68227e-06 0.107351)
(4.65366e-06 -1.91087e-05 0.0971023)
(3.22114e-07 -2.33164e-05 0.103227)
(4.58621e-07 -1.70112e-06 0.107351)
(-1.654e-07 -9.89783e-06 0.0958171)
(2.94717e-07 -9.22592e-06 0.0849277)
(1.34149e-07 -9.94721e-06 0.0958184)
(-2.98759e-06 -3.97874e-06 0.0731966)
(-4.02984e-06 -2.95682e-06 0.0731955)
(-3.79051e-06 -3.86575e-06 0.086831)
(2.4706e-06 2.21529e-06 0.0702944)
(2.34039e-06 2.49787e-06 0.0702895)
(3.92073e-06 3.87509e-06 0.0867779)
(-2.65879e-06 -1.98556e-06 0.070347)
(-1.87782e-06 -2.66038e-06 0.0703421)
(-5.76182e-06 -1.30931e-05 0.0956648)
(2.5301e-06 4.77907e-06 0.0842409)
(1.29451e-05 2.20229e-05 0.100565)
(-5.72517e-06 -4.83279e-06 0.0909501)
(6.1301e-06 1.29154e-05 0.0955952)
(-2.82557e-06 -4.20815e-06 0.0842952)
(-1.11474e-05 -2.11914e-05 0.100642)
(-1.30534e-05 -5.73036e-06 0.0956576)
(4.82084e-06 2.56122e-06 0.0842361)
(2.20728e-05 1.29958e-05 0.100561)
(-4.83534e-06 -5.73156e-06 0.0909482)
(1.29142e-05 6.23969e-06 0.095588)
(-4.19289e-06 -2.82489e-06 0.0842905)
(-2.11055e-05 -1.11301e-05 0.100638)
(7.11496e-07 -4.49008e-06 0.0789611)
(-2.77789e-07 4.25081e-06 0.0808501)
(-3.95096e-07 9.43366e-06 0.0938681)
(2.82885e-08 -1.05335e-05 0.0958831)
(-1.1713e-06 4.52939e-06 0.0789099)
(9.1246e-08 -4.10189e-06 0.0808933)
(-1.87666e-07 -1.02422e-05 0.0939382)
(5.27796e-07 -3.98788e-06 0.069971)
(-6.61197e-07 7.71099e-06 0.0890034)
(-1.94168e-06 -8.27967e-06 0.0849945)
(-1.72397e-06 4.22918e-06 0.0698989)
(-1.15075e-06 -7.84733e-06 0.0890795)
(-7.98443e-07 -4.54871e-06 0.0789615)
(2.3356e-07 4.25746e-06 0.0808509)
(3.21991e-07 9.49266e-06 0.0938681)
(-4.90335e-08 -1.05393e-05 0.0958827)
(1.09193e-06 4.63235e-06 0.0789136)
(-1.37889e-07 -4.10994e-06 0.0808938)
(1.39595e-07 -1.02816e-05 0.0939372)
(-4.58634e-06 7.2278e-07 0.0789606)
(9.47884e-06 -3.74408e-07 0.0938686)
(4.33119e-06 -2.65464e-07 0.0808523)
(-1.06131e-05 3.87185e-08 0.0958815)
(4.61073e-06 -1.14408e-06 0.0789132)
(-1.03267e-05 -1.86034e-07 0.093937)
(-4.19113e-06 9.36278e-08 0.0808922)
(-4.09249e-06 4.97436e-07 0.0699677)
(7.72221e-06 -6.47913e-07 0.0890035)
(-8.33894e-06 -1.91434e-06 0.0849949)
(4.33853e-06 -1.65421e-06 0.0699008)
(-7.93841e-06 -1.17067e-06 0.0890781)
(-4.49283e-06 -7.25984e-07 0.0789615)
(4.33198e-06 2.45011e-07 0.0808521)
(9.42963e-06 3.9016e-07 0.0938674)
(-1.06072e-05 -4.25239e-08 0.0958811)
(4.54887e-06 1.14421e-06 0.0789108)
(-4.1732e-06 -1.17063e-07 0.0808925)
(-1.02681e-05 1.61424e-07 0.0939374)
(-3.99382e-06 -5.12929e-07 0.0699713)
(7.68895e-06 6.68043e-07 0.0890026)
(-8.28101e-06 1.91097e-06 0.0849949)
(4.22137e-06 1.72503e-06 0.0698991)
(-7.8653e-06 1.14059e-06 0.0890791)
(-3.90373e-06 2.89096e-06 0.073197)
(-3.84133e-06 3.81153e-06 0.0868302)
(2.25238e-06 -2.47939e-06 0.0702884)
(2.46627e-06 -2.2679e-06 0.0702948)
(3.88642e-06 -3.93839e-06 0.0867773)
(-1.94039e-06 2.65545e-06 0.0703416)
(-2.66407e-06 1.93249e-06 0.0703478)
(-1.30674e-05 5.7237e-06 0.0956575)
(4.77668e-06 -2.54274e-06 0.0842339)
(2.19937e-05 -1.3003e-05 0.100561)
(-4.76663e-06 5.67884e-06 0.0909498)
(-2.11608e-05 1.11017e-05 0.10064)
(1.28546e-05 -6.20457e-06 0.095587)
(-4.15043e-06 2.79387e-06 0.0842906)
(-5.72605e-06 1.30657e-05 0.0956648)
(2.51444e-06 -4.76674e-06 0.0842398)
(1.29776e-05 -2.20659e-05 0.100564)
(-5.72622e-06 4.83583e-06 0.09095)
(6.15526e-06 -1.29004e-05 0.095595)
(-2.80052e-06 4.1713e-06 0.0842956)
(-1.11359e-05 2.11209e-05 0.100642)
(-2.98156e-06 4.00848e-06 0.0731963)
(7.3177e-07 4.50071e-06 0.0789619)
(-3.57729e-07 -9.43776e-06 0.0938667)
(-2.75552e-07 -4.25471e-06 0.0808505)
(2.74342e-08 1.05428e-05 0.0958825)
(-1.15783e-06 -4.54236e-06 0.0789111)
(-1.80041e-07 1.02572e-05 0.0939377)
(7.62667e-08 4.11493e-06 0.0808936)
(5.1693e-07 4.0818e-06 0.0699704)
(-6.193e-07 -7.7449e-06 0.0890045)
(-1.93837e-06 8.34851e-06 0.0849941)
(-1.65803e-06 -4.32688e-06 0.0699035)
(-1.1583e-06 7.92237e-06 0.089078)
(-8.08634e-07 4.48662e-06 0.0789624)
(3.53176e-07 -9.45038e-06 0.0938671)
(2.29298e-07 -4.31526e-06 0.0808518)
(-5.58275e-08 1.05845e-05 0.0958815)
(1.08026e-06 -4.55473e-06 0.0789111)
(1.17765e-07 1.02328e-05 0.0939384)
(-1.35569e-07 4.16146e-06 0.0808928)
(-1.86665e-06 -1.94831e-06 0.107568)
(9.05096e-07 -8.53285e-07 0.107735)
(-8.10214e-07 9.40309e-07 0.107735)
(7.11904e-07 7.10118e-07 0.10784)
(-9.64412e-07 -8.42433e-07 0.107735)
(-6.94755e-07 7.0896e-07 0.10784)
(-1.9009e-06 1.8287e-06 0.107568)
(-8.39e-07 -9.04612e-07 0.107735)
(8.70733e-07 8.46439e-07 0.107735)
(6.71574e-07 -7.43355e-07 0.10784)
(-8.99076e-07 8.33915e-07 0.107735)
(-6.83353e-07 -7.42699e-07 0.10784)
(-2.04688e-05 -2.03715e-05 0.101799)
(-7.25493e-05 -7.25571e-05 0.106164)
(7.70994e-05 2.21523e-05 0.104651)
(2.20188e-05 7.69631e-05 0.104649)
(1.92728e-05 1.94502e-05 0.101706)
(-7.71676e-05 -2.20331e-05 0.104732)
(-2.21035e-05 -7.7227e-05 0.104731)
(5.12395e-07 -9.07019e-05 0.10567)
(-7.69647e-07 2.29948e-05 0.102203)
(-3.17621e-07 8.34646e-05 0.105949)
(3.44235e-07 -2.30931e-05 0.1033)
(6.98439e-08 8.71662e-05 0.105581)
(4.27626e-07 -2.37131e-05 0.102294)
(5.05138e-07 -8.53342e-05 0.106013)
(-9.71217e-07 -9.82507e-05 0.104844)
(-1.45592e-07 2.21617e-05 0.100056)
(6.89541e-06 9.49099e-05 0.103365)
(-6.01562e-06 -1.72935e-05 0.0972112)
(-4.68702e-06 -9.1582e-05 0.103466)
(1.93271e-06 9.63129e-05 0.104727)
(-1.8601e-06 -2.25466e-05 0.10017)
(-5.3909e-07 -9.07153e-05 0.105669)
(7.29866e-07 2.30246e-05 0.102201)
(3.38769e-07 8.34786e-05 0.105949)
(-3.5182e-07 -2.30854e-05 0.1033)
(-7.31532e-08 8.7149e-05 0.10558)
(-4.5789e-07 -2.37055e-05 0.102293)
(-5.04353e-07 -8.53113e-05 0.106012)
(-9.07001e-05 5.41444e-07 0.10567)
(2.30389e-05 -7.32858e-07 0.102201)
(8.344e-05 -3.38829e-07 0.105949)
(-2.30804e-05 3.61849e-07 0.1033)
(8.71796e-05 9.59671e-09 0.10558)
(-2.36901e-05 4.73715e-07 0.102293)
(-8.53715e-05 4.98495e-07 0.106012)
(-9.83788e-05 -9.96773e-07 0.104844)