/*--------------------------------*- C++ -*----------------------------------*\
| =========                 |                                                 |
| \\      /  F ield         | OpenFOAM: The Open Source CFD Toolbox           |
|  \\    /   O peration     | Version:  v1912                                 |
|   \\  /    A nd           | Website:  www.openfoam.com                      |
|    \\/     M anipulation  |                                                 |
\*---------------------------------------------------------------------------*/
FoamFile
{
    version     2.0;
    format      ascii;
    class       volScalarField;
    location    "20";
    object      nut;
}
// * * * * * * * * * * * * * * * * * * * * * * * * * * * * * * * * * * * * * //

dimensions      [0 2 -1 0 0 0 0];


internalField   nonuniform List<scalar> 
171728
(
0.000233975
0.000233114
0.000233114
0.000233433
0.00023254
0.000227815
0.000227814
0.000223889
0.000230527
0.000220321
0.000220316
0.000209162
0.000227581
0.000211246
0.000211239
0.000193875
0.000225692
0.000206386
0.00020638
0.000184163
0.000226168
0.000208421
0.000208415
0.000187479
0.000226354
0.000208967
0.000208962
0.000188562
0.000226364
0.000209037
0.000209032
0.000188727
0.000226364
0.000209067
0.000209062
0.00018874
0.000226363
0.000209067
0.000209063
0.000188739
0.000226363
0.000209069
0.000209064
0.000188739
0.000226363
0.000209069
0.000209064
0.000188739
0.000226364
0.00020907
0.000209063
0.000188739
0.000226363
0.000209068
0.000209064
0.000188739
0.000226363
0.000209069
0.000209063
0.000188739
0.000226363
0.000209069
0.000209064
0.000188739
0.000226363
0.000209069
0.000209063
0.000188739
0.000226363
0.000209068
0.000209063
0.000188739
0.000226363
0.000209069
0.000209064
0.000188739
0.000226363
0.00020907
0.000209064
0.000188739
0.000226364
0.000209068
0.000209062
0.000188739
0.000226364
0.00020907
0.000209065
0.000188739
0.000226364
0.000209068
0.000209064
0.000188739
0.000226363
0.000209069
0.000209063
0.000188739
0.000226364
0.000209069
0.000209064
0.000188739
0.000226363
0.000209068
0.000209062
0.000188739
0.000226364
0.00020907
0.000209064
0.000188739
0.000226363
0.000209068
0.000209065
0.000188739
0.000226363
0.00020907
0.000209063
0.000188739
0.000226363
0.000209067
0.000209067
0.000188738
0.000234257
0.000234447
0.000234448
0.000234258
0.000234448
0.000234448
0.000234273
0.000234274
0.000234274
0.000234274
0.000234448
0.000234447
0.000234257
0.000234448
0.000234448
0.000234257
0.000233433
0.000226184
0.000233115
0.000233113
0.000229354
0.00022935
0.000233433
0.000226186
0.000233112
0.000233113
0.000229352
0.000229349
0.000233115
0.000229354
0.000229355
0.000233433
0.000226182
0.000233113
0.000229354
0.000229352
0.000226183
0.000223888
0.000212164
0.000227811
0.000227806
0.000222266
0.000222261
0.000223889
0.000212169
0.000227809
0.000227805
0.000222267
0.000222257
0.000227812
0.000222281
0.000222267
0.000223887
0.000212162
0.000227809
0.000222276
0.000222265
0.000212165
0.000209168
0.000196923
0.000220314
0.00022031
0.000213814
0.00021381
0.000209169
0.000196928
0.000220316
0.000220306
0.00021382
0.000213806
0.000220315
0.000213824
0.000213814
0.000209164
0.000196919
0.000220314
0.000213818
0.000213816
0.00019692
0.000193877
0.000185136
0.000211232
0.000211229
0.000206426
0.00020642
0.000193881
0.000185142
0.000211239
0.000211224
0.000206433
0.000206415
0.000211232
0.000206443
0.000206424
0.000193874
0.000185132
0.000211236
0.000206437
0.000206433
0.000185133
0.000184186
0.000187458
0.000206373
0.000206366
0.000207987
0.000207983
0.00018419
0.000187462
0.00020638
0.000206361
0.000207995
0.000207977
0.000206371
0.000208005
0.000207985
0.000184182
0.000187453
0.000206381
0.000207999
0.000207996
0.00018744
0.000187498
0.000188653
0.000208414
0.000208411
0.000208911
0.000208909
0.000187502
0.000188657
0.000208421
0.000208404
0.000208919
0.000208901
0.000208412
0.000208932
0.000208911
0.000187494
0.000188648
0.000208423
0.000208927
0.000208923
0.000188677
0.000188535
0.00018883
0.000208951
0.000208948
0.000209007
0.000209004
0.000188542
0.000188833
0.000208959
0.00020894
0.000209015
0.000208997
0.000208953
0.000209026
0.000209008
0.000188533
0.000188823
0.000208964
0.00020902
0.00020902
0.000188869
0.000188707
0.000188907
0.000209023
0.000209021
0.000209047
0.000209046
0.000188706
0.000188912
0.000209031
0.000209012
0.000209057
0.000209039
0.000209024
0.000209066
0.000209044
0.000188696
0.000188902
0.000209035
0.00020906
0.000209056
0.0001889
0.0001888
0.000188912
0.000209061
0.00020906
0.00020905
0.000209048
0.000188804
0.000188918
0.000209071
0.000209053
0.00020906
0.000209041
0.000209059
0.000209069
0.000209044
0.000188795
0.000188909
0.00020907
0.000209065
0.000209056
0.000188899
0.000188805
0.000188912
0.000209057
0.000209055
0.000209051
0.000209049
0.00018881
0.000188918
0.000209066
0.000209048
0.00020906
0.000209041
0.000209051
0.000209072
0.000209045
0.000188801
0.000188908
0.000209062
0.000209067
0.000209057
0.000188899
0.000188805
0.000188913
0.000209057
0.000209055
0.000209051
0.000209049
0.00018881
0.000188918
0.000209067
0.000209048
0.00020906
0.000209041
0.000209051
0.00020907
0.000209045
0.000188801
0.000188909
0.000209063
0.000209065
0.000209057
0.000188899
0.000188806
0.000188914
0.000209057
0.000209055
0.000209051
0.000209049
0.000188809
0.000188918
0.000209066
0.000209048
0.00020906
0.000209041
0.000209051
0.000209073
0.000209045
0.000188801
0.000188909
0.000209063
0.000209065
0.000209057
0.000188899
0.000188806
0.000188913
0.000209058
0.000209055
0.000209051
0.000209048
0.000188809
0.000188917
0.000209067
0.000209048
0.000209061
0.000209041
0.000209051
0.00020907
0.000209045
0.000188801
0.000188909
0.000209063
0.000209066
0.000209057
0.000188899
0.000188806
0.000188914
0.000209058
0.000209055
0.000209051
0.000209048
0.000188808
0.000188918
0.000209067
0.000209048
0.000209061
0.000209042
0.000209051
0.000209071
0.000209045
0.000188801
0.000188909
0.000209063
0.000209065
0.000209057
0.000188899
0.000188806
0.000188914
0.000209058
0.000209055
0.00020905
0.000209048
0.000188809
0.000188918
0.000209067
0.000209048
0.00020906
0.000209042
0.000209051
0.000209071
0.000209045
0.000188801
0.000188909
0.000209063
0.000209066
0.000209057
0.000188899
0.000188806
0.000188914
0.000209057
0.000209055
0.00020905
0.000209049
0.00018881
0.000188918
0.000209067
0.000209048
0.00020906
0.000209042
0.000209051
0.000209071
0.000209045
0.000188801
0.000188909
0.000209063
0.000209065
0.000209056
0.000188899
0.000188806
0.000188914
0.000209056
0.000209056
0.00020905
0.00020905
0.00018881
0.000188918
0.000209066
0.000209048
0.00020906
0.000209041
0.000209051
0.00020907
0.000209045
0.000188801
0.000188909
0.000209062
0.000209065
0.000209057
0.000188899
0.000188806
0.000188914
0.000209056
0.000209056
0.00020905
0.00020905
0.00018881
0.000188918
0.000209066
0.000209048
0.00020906
0.000209041
0.000209051
0.000209071
0.000209045
0.000188801
0.000188909
0.000209063
0.000209066
0.000209057
0.000188899
0.000188806
0.000188913
0.000209056
0.000209057
0.00020905
0.00020905
0.00018881
0.000188919
0.000209066
0.000209048
0.00020906
0.000209041
0.000209051
0.000209072
0.000209045
0.000188801
0.000188909
0.000209063
0.000209066
0.000209057
0.000188899
0.000188805
0.000188913
0.000209056
0.000209056
0.000209051
0.000209049
0.000188811
0.000188919
0.000209066
0.000209048
0.000209061
0.000209042
0.000209051
0.00020907
0.000209045
0.000188801
0.000188909
0.000209063
0.000209064
0.000209057
0.000188899
0.000188805
0.000188913
0.000209057
0.000209055
0.000209051
0.000209049
0.000188811
0.00018892
0.000209067
0.000209048
0.000209061
0.000209041
0.000209051
0.000209073
0.000209045
0.000188801
0.000188909
0.000209063
0.000209067
0.000209057
0.000188899
0.000188805
0.000188913
0.000209058
0.000209055
0.000209052
0.000209049
0.000188811
0.00018892
0.000209067
0.000209048
0.000209061
0.000209042
0.000209051
0.00020907
0.000209046
0.000188801
0.000188909
0.000209063
0.000209065
0.000209057
0.000188899
0.000188805
0.000188913
0.000209058
0.000209055
0.000209052
0.000209049
0.000188811
0.000188919
0.000209067
0.000209048
0.000209062
0.000209042
0.000209051
0.000209071
0.000209045
0.000188801
0.000188909
0.000209063
0.000209065
0.000209057
0.000188899
0.000188806
0.000188913
0.000209058
0.000209055
0.000209051
0.000209049
0.00018881
0.000188919
0.000209068
0.000209048
0.000209062
0.000209042
0.000209051
0.00020907
0.000209045
0.000188801
0.000188909
0.000209062
0.000209066
0.000209056
0.000188899
0.000188805
0.000188913
0.000209057
0.000209055
0.000209051
0.000209049
0.00018881
0.000188919
0.000209068
0.000209048
0.000209062
0.000209042
0.000209051
0.00020907
0.000209045
0.000188801
0.000188909
0.000209062
0.000209065
0.000209056
0.000188899
0.000188805
0.000188912
0.000209057
0.000209055
0.00020905
0.000209049
0.00018881
0.000188919
0.000209068
0.000209048
0.000209061
0.000209041
0.000209051
0.000209072
0.000209045
0.000188801
0.000188909
0.000209062
0.000209066
0.000209055
0.000188899
0.000188804
0.000188912
0.000209057
0.000209055
0.00020905
0.000209049
0.00018881
0.000188919
0.000209068
0.000209048
0.000209061
0.000209041
0.000209051
0.00020907
0.000209045
0.000188801
0.000188909
0.000209061
0.000209069
0.000209055
0.000188899
0.000188804
0.000188912
0.000209057
0.000209056
0.00020905
0.000209049
0.00018881
0.000188919
0.000209068
0.000209048
0.000209061
0.000209042
0.000209051
0.000209072
0.000209045
0.000188802
0.000188909
0.000209061
0.000209064
0.000209056
0.000188899
0.000188804
0.000188912
0.000209057
0.000209056
0.00020905
0.000209049
0.00018881
0.000188919
0.000209067
0.000209048
0.000209061
0.000209042
0.000209051
0.000209069
0.000209045
0.000188801
0.000188908
0.000209062
0.000209065
0.000209055
0.000188899
0.000188805
0.000209056
0.000209055
0.00018881
0.000209067
0.000209046
0.00020905
0.000188795
0.00020906
0.00023473
0.000234746
0.000234729
0.000234729
0.000235114
0.000234797
0.000234702
0.000234727
0.000235114
0.000234797
0.000234727
0.000234702
0.000234862
0.000233566
0.000233566
0.000104438
3.87414e-05
0.000129403
3.98184e-05
2.1682e-05
2.28283e-05
0.000104427
3.87375e-05
0.000129399
3.98149e-05
0.000233976
0.000233976
0.000233977
0.000232939
0.000232939
0.000232939
0.000232939
0.000206063
9.34245e-05
0.00023397
0.000231986
0.000222731
8.71356e-05
0.000233611
2.16809e-05
2.28275e-05
0.000206055
0.00023397
9.34266e-05
0.000231986
0.000222739
0.000233611
8.71392e-05
4.78017e-05
4.77896e-05
0.000231334
4.39117e-05
4.39025e-05
7.24371e-05
4.24368e-05
8.14433e-05
4.37548e-05
2.47785e-05
2.54609e-05
7.2422e-05
4.24333e-05
8.14423e-05
4.37508e-05
0.00023254
0.00023254
0.00023254
0.000231059
0.000231056
0.000231055
0.000231054
0.000167399
7.9391e-05
0.000232085
0.000226101
0.000180198
7.46494e-05
0.000231383
2.47769e-05
2.54591e-05
0.000167387
0.000232085
7.93858e-05
0.000226099
0.000180197
0.000231382
7.46443e-05
3.90976e-05
3.90864e-05
0.000219565
3.65175e-05
3.65075e-05
5.6161e-05
4.55496e-05
6.11362e-05
4.64027e-05
2.60171e-05
2.61146e-05
5.61557e-05
4.5547e-05
6.11421e-05
4.63988e-05
0.000230531
0.00023053
0.00023053
0.000228481
0.000228482
0.00022848
0.000228481
0.000138424
6.74601e-05
0.000228629
0.000218368
0.00014805
6.3633e-05
0.000227598
2.60151e-05
2.61124e-05
0.000138416
0.000228627
6.74376e-05
0.000218363
0.000148042
0.000227596
6.36245e-05
3.31655e-05
3.31581e-05
0.000204594
3.19173e-05
3.19098e-05
4.70712e-05
4.75164e-05
4.96764e-05
4.79755e-05
2.60527e-05
2.59277e-05
4.70708e-05
4.7512e-05
4.9675e-05
4.79716e-05
0.000227583
0.000227581
0.000227582
0.000225786
0.000225786
0.000225784
0.000225783
0.000117517
5.81855e-05
0.000223489
0.000208906
0.000124392
5.57197e-05
0.000221957
2.60505e-05
2.59254e-05
0.000117511
0.000223486
5.81735e-05
0.0002089
0.000124385
0.000221954
5.571e-05
3.04686e-05
3.0463e-05
0.000189323
3.04812e-05
3.0476e-05
4.79606e-05
4.84679e-05
4.6642e-05
4.87006e-05
2.58281e-05
2.58313e-05
4.7954e-05
4.84643e-05
4.66466e-05
4.86972e-05
0.00022569
0.000225688
0.000225689
0.000226059
0.000226056
0.000226054
0.000226055
0.000115065
5.56352e-05
0.000219685
0.000206806
0.000113446
5.73242e-05
0.000219723
2.58257e-05
2.58287e-05
0.000115062
0.000219683
5.56375e-05
0.0002068
0.000113445
0.000219721
5.73266e-05
3.22166e-05
3.2211e-05
0.000185731
3.40097e-05
3.4003e-05
4.90706e-05
4.88703e-05
4.89075e-05
4.88804e-05
2.58461e-05
2.58473e-05
4.90734e-05
4.88673e-05
4.89108e-05
4.88773e-05
0.000226178
0.000226177
0.000226177
0.000226346
0.000226335
0.000226333
0.000226332
0.000117024
5.92777e-05
0.000220228
0.000208694
0.000116641
5.9666e-05
0.000220361
2.58433e-05
2.58448e-05
0.000117024
0.000220227
5.92763e-05
0.000208688
0.000116641
0.000220358
5.96664e-05
3.55586e-05
3.5552e-05
0.000188346
3.58143e-05
3.58078e-05
4.91905e-05
4.88822e-05
4.91573e-05
4.88811e-05
2.58485e-05
2.58484e-05
4.91914e-05
4.8879e-05
4.91601e-05
4.88779e-05
0.00022635
0.000226348
0.000226347
0.000226364
0.000226354
0.000226352
0.000226352
0.00011729
5.98462e-05
0.000220497
0.000209001
0.000117212
5.98996e-05
0.000220514
2.58458e-05
2.58456e-05
0.000117291
0.000220495
5.98464e-05
0.000208995
0.000117212
0.000220512
5.98992e-05
3.594e-05
3.59333e-05
0.000188829
3.59536e-05
3.59468e-05
4.9231e-05
4.88826e-05
4.92144e-05
4.88811e-05
2.58487e-05
2.58485e-05
4.92339e-05
4.88794e-05
4.9217e-05
4.8878e-05
0.000226358
0.000226355
0.000226355
0.000226365
0.00022636
0.000226357
0.000226357
0.000117387
5.99161e-05
0.000220521
0.000209051
0.000117324
5.99442e-05
0.000220527
2.5846e-05
2.58457e-05
0.000117387
0.00022052
5.99181e-05
0.000209045
0.000117324
0.000220527
5.99463e-05
3.59582e-05
3.59514e-05
0.000188904
3.59644e-05
3.59574e-05
4.92333e-05
4.88826e-05
4.92224e-05
4.88812e-05
2.58487e-05
2.58485e-05
4.92375e-05
4.88795e-05
4.92285e-05
4.8878e-05
0.000226362
0.00022636
0.000226359
0.000226364
0.000226359
0.000226357
0.000226356
0.000117397
5.99254e-05
0.000220523
0.00020908
0.000117362
5.9947e-05
0.000220526
2.5846e-05
2.58457e-05
0.0001174
0.000220522
5.99292e-05
0.000209074
0.000117364
0.000220526
5.99504e-05
3.59612e-05
3.59542e-05
0.000188906
3.59654e-05
3.59583e-05
4.92331e-05
4.88826e-05
4.92224e-05
4.8881e-05
2.58487e-05
2.58485e-05
4.92374e-05
4.88796e-05
4.92286e-05
4.8878e-05
0.000226362
0.000226359
0.000226358
0.000226364
0.000226359
0.000226357
0.000226356
0.000117397
5.99255e-05
0.00022052
0.000209074
0.000117362
5.9947e-05
0.000220524
2.5846e-05
2.58457e-05
0.0001174
0.000220521
5.99294e-05
0.000209069
0.000117364
0.000220525
5.99504e-05
3.59613e-05
3.59543e-05
0.000188905
3.59654e-05
3.59584e-05
4.92331e-05
4.88828e-05
4.92223e-05
4.88813e-05
2.58487e-05
2.58485e-05
4.92375e-05
4.88793e-05
4.92283e-05
4.88777e-05
0.000226362
0.000226359
0.000226358
0.000226364
0.000226359
0.000226357
0.000226356
0.000117397
5.99254e-05
0.000220522
0.000209075
0.000117362
5.99469e-05
0.000220526
2.58461e-05
2.58457e-05
0.0001174
0.000220521
5.99295e-05
0.00020907
0.000117364
0.000220525
5.99505e-05
3.59613e-05
3.59545e-05
0.000188905
3.59655e-05
3.59586e-05
4.92332e-05
4.88829e-05
4.92224e-05
4.88815e-05
2.58487e-05
2.58485e-05
4.92376e-05
4.88792e-05
4.92286e-05
4.88777e-05
0.000226362
0.000226359
0.000226358
0.000226364
0.00022636
0.000226357
0.000226356
0.000117397
5.99254e-05
0.000220523
0.000209075
0.000117362
5.9947e-05
0.000220527
2.5846e-05
2.58457e-05
0.0001174
0.000220521
5.99296e-05
0.00020907
0.000117364
0.000220525
5.99506e-05
3.59614e-05
3.59546e-05
0.000188906
3.59655e-05
3.59587e-05
4.92332e-05
4.8883e-05
4.92224e-05
4.88815e-05
2.58487e-05
2.58485e-05
4.92376e-05
4.88791e-05
4.92286e-05
4.88777e-05
0.000226362
0.000226359
0.000226358
0.000226364
0.000226359
0.000226357
0.000226356
0.000117398
5.99255e-05
0.000220524
0.000209076
0.000117362
5.9947e-05
0.000220528
2.5846e-05
2.58457e-05
0.0001174
0.000220521
5.99295e-05
0.000209069
0.000117364
0.000220525
5.99504e-05
3.59614e-05
3.59546e-05
0.000188905
3.59655e-05
3.59586e-05
4.92332e-05
4.8883e-05
4.92224e-05
4.88815e-05
2.58487e-05
2.58485e-05
4.92374e-05
4.88791e-05
4.92286e-05
4.88777e-05
0.000226362
0.000226359
0.000226358
0.000226363
0.000226359
0.000226357
0.000226356
0.000117397
5.99254e-05
0.000220524
0.000209075
0.000117362
5.99469e-05
0.000220527
2.5846e-05
2.58457e-05
0.0001174
0.000220521
5.99294e-05
0.00020907
0.000117364
0.000220525
5.99504e-05
3.59614e-05
3.59546e-05
0.000188906
3.59655e-05
3.59586e-05
4.92331e-05
4.8883e-05
4.92224e-05
4.88815e-05
2.58487e-05
2.58485e-05
4.92376e-05
4.88791e-05
4.92282e-05
4.88777e-05
0.000226362
0.000226359
0.000226358
0.000226364
0.000226359
0.000226357
0.000226356
0.000117397
5.99254e-05
0.000220523
0.000209075
0.000117362
5.99469e-05
0.000220527
2.5846e-05
2.58457e-05
0.0001174
0.000220521
5.99295e-05
0.000209069
0.000117364
0.000220524
5.99505e-05
3.59614e-05
3.59544e-05
0.000188906
3.59655e-05
3.59585e-05
4.92332e-05
4.8883e-05
4.92224e-05
4.88816e-05
2.58485e-05
2.58483e-05
4.92376e-05
4.88791e-05
4.92286e-05
4.88777e-05
0.000226362
0.000226359
0.000226358
0.000226364
0.000226359
0.000226357
0.000226356
0.000117398
5.99254e-05
0.000220523
0.000209075
0.000117362
5.99469e-05
0.000220527
2.5846e-05
2.58457e-05
0.000117399
0.000220519
5.99295e-05
0.00020907
0.000117364
0.000220523
5.99505e-05
3.59614e-05
3.59545e-05
0.000188906
3.59654e-05
3.59587e-05
4.92331e-05
4.8883e-05
4.92224e-05
4.88815e-05
2.58485e-05
2.58483e-05
4.92375e-05
4.88791e-05
4.92285e-05
4.88777e-05
0.000226362
0.00022636
0.000226358
0.000226363
0.000226359
0.000226357
0.000226356
0.000117397
5.99254e-05
0.000220523
0.000209075
0.000117362
5.9947e-05
0.000220527
2.5846e-05
2.58457e-05
0.000117399
0.000220521
5.99295e-05
0.000209069
0.000117363
0.000220525
5.99504e-05
3.59613e-05
3.59547e-05
0.000188906
3.59654e-05
3.59587e-05
4.92331e-05
4.8883e-05
4.92224e-05
4.88815e-05
2.58485e-05
2.58483e-05
4.92375e-05
4.88791e-05
4.92286e-05
4.88777e-05
0.000226361
0.000226359
0.000226358
0.000226364
0.000226359
0.000226357
0.000226356
0.000117397
5.99254e-05
0.000220522
0.000209074
0.000117362
5.99468e-05
0.000220526
2.5846e-05
2.58457e-05
0.000117399
0.000220521
5.99294e-05
0.000209069
0.000117364
0.000220525
5.99505e-05
3.59613e-05
3.59546e-05
0.000188905
3.59654e-05
3.59586e-05
4.92331e-05
4.88832e-05
4.92223e-05
4.88817e-05
2.58484e-05
2.5848e-05
4.92372e-05
4.88791e-05
4.92284e-05
4.88777e-05
0.000226362
0.000226359
0.000226358
0.000226364
0.00022636
0.000226357
0.000226356
0.000117397
5.99253e-05
0.000220523
0.000209075
0.000117362
5.99468e-05
0.000220527
2.5846e-05
2.58457e-05
0.000117399
0.000220521
5.99295e-05
0.00020907
0.000117363
0.000220525
5.99505e-05
3.59613e-05
3.59544e-05
0.000188906
3.59654e-05
3.59584e-05
4.92331e-05
4.88829e-05
4.92223e-05
4.88812e-05
2.58485e-05
2.58483e-05
4.92379e-05
4.88792e-05
4.92282e-05
4.88776e-05
0.000226362
0.000226359
0.000226358
0.000226364
0.000226359
0.000226357
0.000226356
0.000117397
5.99253e-05
0.000220522
0.000209076
0.000117362
5.99468e-05
0.000220523
2.5846e-05
2.58457e-05
0.000117399
0.000220521
5.99295e-05
0.00020907
0.000117363
0.000220525
5.99505e-05
3.59613e-05
3.59543e-05
0.000188906
3.59654e-05
3.59584e-05
4.92331e-05
4.88826e-05
4.92223e-05
4.88809e-05
2.58488e-05
2.58488e-05
4.92379e-05
4.88794e-05
4.92289e-05
4.88781e-05
0.000226361
0.000226359
0.000226358
0.000226364
0.000226359
0.000226357
0.000226356
0.000117397
5.99253e-05
0.00022052
0.000209075
0.000117362
5.99469e-05
0.000220524
2.5846e-05
2.58457e-05
0.000117399
0.000220519
5.99294e-05
0.000209068
0.000117364
0.000220523
5.99505e-05
3.59614e-05
3.59544e-05
0.000188906
3.59655e-05
3.59585e-05
4.92331e-05
4.88821e-05
4.92224e-05
4.88805e-05
2.5849e-05
2.58488e-05
4.92378e-05
4.88796e-05
4.92288e-05
4.88784e-05
0.000226362
0.000226359
0.000226358
0.000226364
0.000226359
0.000226357
0.000226356
0.000117397
5.99254e-05
0.000220522
0.000209076
0.000117362
5.99469e-05
0.000220526
2.58461e-05
2.58457e-05
0.000117399
0.000220521
5.99295e-05
0.000209071
0.000117363
0.000220525
5.99506e-05
3.59614e-05
3.59546e-05
0.000188906
3.59655e-05
3.59587e-05
4.92331e-05
4.88819e-05
4.92224e-05
4.88804e-05
2.5849e-05
2.58488e-05
4.92378e-05
4.888e-05
4.92286e-05
4.88786e-05
0.000226361
0.00022636
0.000226358
0.000226364
0.000226359
0.000226357
0.000226356
0.000117397
5.99255e-05
0.000220522
0.000209074
0.000117362
5.9947e-05
0.000220522
2.5846e-05
2.58457e-05
0.0001174
0.000220521
5.99296e-05
0.00020907
0.000117364
0.000220522
5.99505e-05
3.59613e-05
3.59546e-05
0.000188906
3.59655e-05
3.59586e-05
4.92331e-05
4.88818e-05
4.92224e-05
4.88803e-05
2.5849e-05
2.58488e-05
4.92378e-05
4.88801e-05
4.92286e-05
4.88787e-05
0.000226361
0.00022636
0.000226358
0.000226364
0.000226359
0.000226357
0.000226356
0.000117397
5.99255e-05
0.000220518
0.000209075
0.000117362
5.99469e-05
0.000220523
2.58461e-05
2.58457e-05
0.000117399
0.000220518
5.99295e-05
0.000209069
0.000117364
0.000220523
5.99505e-05
3.59613e-05
3.59544e-05
0.000188906
3.59655e-05
3.59584e-05
4.92331e-05
4.88818e-05
4.92223e-05
4.88803e-05
2.5849e-05
2.58488e-05
4.92379e-05
4.88801e-05
4.92289e-05
4.88787e-05
0.000226361
0.00022636
0.000226359
0.000226364
0.000226358
0.000226357
0.000226356
0.000117397
5.99253e-05
0.000220522
0.000209075
0.000117362
5.99468e-05
0.000220526
2.5846e-05
2.58457e-05
0.000117399
0.000220521
5.99295e-05
0.00020907
0.000117363
0.000220525
5.99505e-05
3.59614e-05
3.59545e-05
0.000188906
3.59654e-05
3.59586e-05
4.92331e-05
4.88818e-05
4.92223e-05
4.88803e-05
2.5849e-05
2.58488e-05
4.92379e-05
4.88801e-05
4.92287e-05
4.88786e-05
0.000226361
0.000226359
0.000226358
0.000226364
0.000226359
0.000226357
0.000226356
0.000117397
5.99252e-05
0.000220523
0.000209074
0.000117362
5.99468e-05
0.000220527
2.5846e-05
2.58457e-05
0.000117399
0.00022052
5.99295e-05
0.000209069
0.000117363
0.000220524
5.99505e-05
3.59613e-05
3.59547e-05
0.000188906
3.59654e-05
3.59588e-05
4.92331e-05
4.88817e-05
4.92223e-05
4.88802e-05
2.5849e-05
2.58488e-05
4.92377e-05
4.88801e-05
4.92287e-05
4.88786e-05
0.000226361
0.000226359
0.000226358
0.000226364
0.000226359
0.000226357
0.000226356
0.000117397
5.99254e-05
0.000220523
0.000209076
0.000117362
5.99469e-05
0.000220525
2.5846e-05
2.58457e-05
0.000117399
0.000220521
5.99295e-05
0.00020907
0.000117363
0.000220525
5.99505e-05
3.59613e-05
3.59547e-05
0.000188906
3.59655e-05
3.59586e-05
4.9233e-05
4.88817e-05
4.92223e-05
4.88803e-05
2.5849e-05
2.58488e-05
4.92378e-05
4.88801e-05
4.92285e-05
4.88786e-05
0.000226362
0.000226359
0.000226358
0.000226363
0.000226359
0.000226357
0.000226356
0.000117397
5.99254e-05
0.000220521
0.000209074
0.000117362
5.99469e-05
0.000220525
2.5846e-05
2.58457e-05
0.000117399
0.000220521
5.99296e-05
0.000209071
0.000117363
0.000220525
5.99505e-05
3.59613e-05
3.59544e-05
0.000188905
3.59655e-05
3.59585e-05
4.9233e-05
4.88817e-05
4.92223e-05
4.88802e-05
2.5849e-05
2.58488e-05
4.92377e-05
4.88801e-05
4.92286e-05
4.88786e-05
0.000226361
0.000226359
0.000226358
0.000226364
0.000226359
0.000226357
0.000226356
0.000117397
5.99254e-05
0.000220522
0.000209076
0.000117362
5.99468e-05
0.000220527
2.5846e-05
2.58457e-05
0.000117399
0.000220521
5.99295e-05
0.00020907
0.000117363
0.000220525
5.99505e-05
3.59614e-05
3.59546e-05
0.000188906
3.59655e-05
3.59588e-05
4.92282e-05
4.88817e-05
4.92224e-05
4.88803e-05
2.5849e-05
2.58489e-05
4.92352e-05
4.88801e-05
4.92284e-05
4.88787e-05
0.00022636
0.00022636
0.000226359
0.000117411
5.99252e-05
0.000220522
0.000209072
0.000117362
5.9949e-05
0.000220528
2.5846e-05
2.58497e-05
0.000117677
0.000220525
5.99295e-05
0.000209227
0.000117363
0.000220627
6.00699e-05
3.59614e-05
3.59549e-05
0.000189118
3.59859e-05
3.59794e-05
0.000234862
0.000233564
0.000233566
2.32581e-05
0.000214158
2.3257e-05
0.000214161
0.000234441
5.13602e-05
5.13415e-05
0.000229989
0.00022999
0.000235114
0.000234797
0.000234702
0.000234726
0.000235114
0.000234797
0.000234702
0.000234726
0.000234476
4.02623e-05
0.000218811
0.000147796
0.000234476
4.02618e-05
0.000218811
0.000147801
0.000233896
0.000234476
9.98164e-05
0.000234269
0.000233358
0.000234596
0.000228473
0.000233896
0.000234476
9.98058e-05
0.000234269
0.000233358
0.000234597
0.000228471
0.000234862
0.000233565
0.000233565
2.32578e-05
0.000214166
0.000234441
5.13514e-05
5.13471e-05
0.000229988
0.00022999
2.32576e-05
0.000214168
0.000235114
0.000234797
0.000234702
0.000234726
0.000235114
0.000234797
0.000234726
0.000234702
0.000234476
4.02591e-05
0.000218812
0.000147773
0.000233896
0.000234475
9.97936e-05
0.000234269
0.000233358
0.000234596
0.000228469
0.000234476
4.02587e-05
0.000218812
0.000147786
0.000233896
0.000234476
0.000234269
9.9803e-05
0.000234597
0.000233358
0.000228472
0.00023473
0.000234746
0.000234729
0.000234729
0.00023473
0.000234746
0.000234729
0.000234729
0.00023473
0.000234746
0.000234729
0.000234729
0.000234591
0.000234573
0.000234253
0.000234253
0.000234591
0.000234591
0.000234253
0.000234591
0.000234574
0.000234253
0.000234253
0.000234592
0.000234592
0.000234253
0.000234591
0.000234574
0.000234253
0.000234253
0.000234592
0.000234592
0.000234253
0.000234591
0.000234574
0.000234253
0.000234253
0.000234592
0.000234592
0.000234253
0.000235114
0.000234797
0.000234726
0.000234702
0.000233895
0.000234476
9.97988e-05
0.000234269
0.000233358
0.000234596
0.000228471
0.000234476
4.02599e-05
0.000218814
0.000147785
0.000233896
0.000234476
0.000234269
9.98114e-05
0.000234596
0.000233359
0.000228472
0.000234476
4.02594e-05
0.000218813
0.000147793
0.000234862
0.000233566
0.000233566
2.3257e-05
0.000214162
0.000234441
5.13449e-05
5.13488e-05
0.00022999
0.000229992
2.32574e-05
0.00021417
0.000235114
0.000234797
0.000234726
0.000234702
0.000233895
0.000234476
0.000234269
9.98066e-05
0.000234596
0.000233359
0.000228471
0.000233896
0.000234475
0.000234269
9.97952e-05
0.000234596
0.000233358
0.00022847
0.000234476
4.0259e-05
0.000218815
0.000147772
0.000234476
4.02588e-05
0.00021881
0.000147758
0.000234441
5.13518e-05
5.13401e-05
0.000229991
0.000229991
2.32575e-05
0.000214169
2.3257e-05
0.000214163
2.16824e-05
2.28294e-05
2.16811e-05
2.28279e-05
4.78021e-05
4.77908e-05
0.000231335
4.39179e-05
4.39021e-05
2.4478e-05
2.33105e-05
2.44764e-05
2.33092e-05
0.000229676
4.00455e-05
4.00304e-05
4.30225e-05
4.30095e-05
0.000104448
3.87403e-05
0.000129393
3.98166e-05
0.000206069
9.34358e-05
0.000233971
0.000231984
0.000222725
8.71422e-05
0.000233609
0.00020607
9.3421e-05
0.000233972
0.000231979
0.000222722
8.7128e-05
0.000233608
9.8458e-05
4.1955e-05
4.03781e-05
8.54235e-05
9.84514e-05
4.19539e-05
4.0377e-05
8.54255e-05
0.000200123
0.000230742
8.0894e-05
0.000232682
8.55399e-05
0.000233185
0.000185489
0.000200123
0.000230738
8.08854e-05
0.000232681
8.55247e-05
0.000233185
0.000185491
4.77942e-05
4.77997e-05
0.000231336
4.3907e-05
4.39114e-05
2.1682e-05
2.28294e-05
2.44772e-05
2.33098e-05
0.000229677
4.00355e-05
4.00372e-05
4.30121e-05
4.30189e-05
2.44782e-05
2.33107e-05
0.000206057
9.34153e-05
0.000233971
0.000231981
0.000222724
8.71217e-05
0.000233609
0.000104428
3.87369e-05
0.000129422
3.98142e-05
0.000206058
0.000233972
9.34182e-05
0.000231979
0.000222729
0.000233608
8.71224e-05
9.84561e-05
4.19512e-05
4.03746e-05
8.54156e-05
0.000200123
0.000230739
8.08795e-05
0.000232681
8.55242e-05
0.000233185
0.000185483
9.84571e-05
4.19505e-05
4.0374e-05
8.54151e-05
0.000200123
0.000230737
0.000232681
8.08758e-05
0.000233185
8.55215e-05
0.00018548
0.000104434
3.87378e-05
0.000129413
3.98172e-05
0.000206063
0.000233971
9.34285e-05
0.000231983
0.000222736
0.000233609
8.71363e-05
0.000104433
3.87383e-05
0.000129433
3.98156e-05
0.000200126
0.000230745
8.08886e-05
0.000232681
8.55362e-05
0.000233185
0.000185488
9.84569e-05
4.19538e-05
4.03758e-05
8.54202e-05
0.000200126
0.000230742
0.000232682
8.09145e-05
0.000233185
8.55403e-05
0.000185489
9.84624e-05
4.19514e-05
4.03762e-05
8.54216e-05
4.77908e-05
4.77991e-05
0.000231334
4.39019e-05
4.39171e-05
2.16814e-05
2.28285e-05
2.44758e-05
2.33085e-05
0.000229676
4.00296e-05
4.00432e-05
4.30101e-05
4.30185e-05
2.44771e-05
2.33097e-05
0.000206053
0.000233971
9.34146e-05
0.00023198
0.000222735
0.000233609
8.71243e-05
0.000104413
3.87373e-05
0.00012944
3.98157e-05
0.000104408
3.87367e-05
0.000129426
3.98147e-05
0.000200126
0.000230745
0.000232681
8.08927e-05
0.000233185
8.55323e-05
0.00018548
0.000200127
0.00023074
0.000232681
8.0884e-05
0.000233185
8.55234e-05
0.000185479
9.84726e-05
4.19523e-05
4.03756e-05
8.5414e-05
9.84715e-05
4.19516e-05
4.03742e-05
8.54136e-05
2.16819e-05
2.28285e-05
2.1681e-05
2.2828e-05
0.000229676
4.00436e-05
4.00311e-05
4.30234e-05
4.30089e-05
2.44771e-05
2.331e-05
2.44764e-05
2.33093e-05
2.47792e-05
2.54619e-05
2.47775e-05
2.54601e-05
3.90996e-05
3.90863e-05
0.000219567
3.65262e-05
3.65069e-05
2.59527e-05
2.56237e-05
2.59512e-05
2.5622e-05
0.000216804
3.3781e-05
3.37611e-05
3.56688e-05
3.56604e-05
7.24376e-05
4.24353e-05
8.14453e-05
4.37542e-05
0.000167398
7.93924e-05
0.000232085
0.000226094
0.000180194
7.46423e-05
0.000231382
0.000167399
7.93768e-05
0.000232085
0.000226089
0.000180197
7.46372e-05
0.000231381
6.95774e-05
4.52253e-05
4.41575e-05
6.32225e-05
6.95818e-05
4.52251e-05
4.41558e-05
6.32237e-05
0.000162767
0.000224226
6.88176e-05
0.00022962
7.31426e-05
0.000230557
0.000151886
0.000162772
0.000224221
6.88202e-05
0.000229619
7.31246e-05
0.000230557
0.000151889
3.90896e-05
3.90983e-05
0.00021957
3.65125e-05
3.65265e-05
2.47794e-05
2.54618e-05
2.59521e-05
2.56228e-05
0.000216805
3.37661e-05
3.37793e-05
3.56633e-05
3.56647e-05
2.59528e-05
2.56235e-05
0.000167391
7.93751e-05
0.000232085
0.000226093
0.000180193
7.46323e-05
0.000231381
7.24187e-05
4.24319e-05
8.14403e-05
4.37504e-05
0.000167387
0.000232084
7.93759e-05
0.000226087
0.000180191
0.000231381
7.46256e-05
6.95877e-05
4.52224e-05
4.41541e-05
6.32134e-05
0.000162765
0.000224225
6.88114e-05
0.00022962
7.31254e-05
0.000230557
0.000151885
6.95879e-05
4.52212e-05
4.41517e-05
6.32094e-05
0.000162765
0.000224218
0.000229618
6.88045e-05
0.000230556
7.31235e-05
0.000151881
7.24312e-05
4.24349e-05
8.14466e-05
4.37535e-05
0.000167396
0.000232085
7.94077e-05
0.000226095
0.000180196
0.000231382
7.46637e-05
7.24337e-05
4.2432e-05
8.14407e-05
4.37494e-05
0.000162771