/*--------------------------------*- C++ -*----------------------------------*\
| =========                 |                                                 |
| \\      /  F ield         | OpenFOAM: The Open Source CFD Toolbox           |
|  \\    /   O peration     | Version:  v1912                                 |
|   \\  /    A nd           | Website:  www.openfoam.com                      |
|    \\/     M anipulation  |                                                 |
\*---------------------------------------------------------------------------*/
FoamFile
{
    version     2.0;
    format      ascii;
    class       volScalarField;
    location    "20";
    object      p;
}
// * * * * * * * * * * * * * * * * * * * * * * * * * * * * * * * * * * * * * //

dimensions      [0 2 -2 0 0 0 0];


internalField   nonuniform List<scalar> 
171728
(
0.00417974
0.00418001
0.00418001
0.00418289
0.00412334
0.0041241
0.0041241
0.0041273
0.00407297
0.00407301
0.00407301
0.00407579
0.00402108
0.00402086
0.00402086
0.00402337
0.00397307
0.00397294
0.00397295
0.00397536
0.00392842
0.00392837
0.00392837
0.0039309
0.00388422
0.00388418
0.00388418
0.00388669
0.00384008
0.00384005
0.00384005
0.00384255
0.00379595
0.00379592
0.00379592
0.00379843
0.00375183
0.0037518
0.0037518
0.00375431
0.00370771
0.00370768
0.00370768
0.00371019
0.00366359
0.00366356
0.00366356
0.00366606
0.00361946
0.00361943
0.00361943
0.00362194
0.00357534
0.00357531
0.00357531
0.00357781
0.00353121
0.00353118
0.00353118
0.00353368
0.00348708
0.00348705
0.00348705
0.00348956
0.00344295
0.00344292
0.00344292
0.00344543
0.00339882
0.00339879
0.00339879
0.0034013
0.00335469
0.00335466
0.00335466
0.00335717
0.00331056
0.00331053
0.00331053
0.00331304
0.00326643
0.0032664
0.0032664
0.00326891
0.00322231
0.00322227
0.00322227
0.00322478
0.00317818
0.00317815
0.00317815
0.00318065
0.00313405
0.00313402
0.00313402
0.00313652
0.00308992
0.00308988
0.00308988
0.00309239
0.00304579
0.00304575
0.00304575
0.00304826
0.00300166
0.00300163
0.00300163
0.00300413
0.00295753
0.0029575
0.0029575
0.00296
0.0029134
0.00291337
0.00291337
0.00291588
0.00286927
0.00286924
0.00286924
0.00287175
0.00419294
0.00419322
0.00419322
0.00419294
0.00419322
0.00419322
0.00419394
0.00419393
0.00419394
0.00419394
0.00419322
0.00419322
0.00419294
0.00419322
0.00419322
0.00419294
0.00418289
0.00413401
0.00418
0.00418
0.00413595
0.00413595
0.00418289
0.004134
0.00418001
0.00418
0.00413594
0.00413595
0.00418
0.00413594
0.00413595
0.00418289
0.00413401
0.00418001
0.00413594
0.00413594
0.004134
0.0041273
0.00408292
0.0041241
0.0041241
0.0040861
0.00408611
0.0041273
0.00408293
0.0041241
0.0041241
0.0040861
0.0040861
0.0041241
0.0040861
0.0040861
0.0041273
0.00408292
0.0041241
0.0040861
0.0040861
0.00408293
0.00407579
0.00403044
0.00407301
0.00407301
0.00403363
0.00403364
0.00407579
0.00403044
0.00407301
0.00407301
0.00403363
0.00403364
0.00407301
0.00403364
0.00403364
0.00407579
0.00403044
0.00407301
0.00403363
0.00403364
0.00403044
0.00402337
0.00398151
0.00402086
0.00402086
0.00398439
0.00398438
0.00402337
0.00398151
0.00402086
0.00402086
0.00398439
0.00398439
0.00402086
0.00398439
0.00398439
0.00402337
0.00398151
0.00402086
0.00398439
0.00398439
0.00398151
0.00397536
0.00393693
0.00397295
0.00397294
0.00393945
0.00393945
0.00397536
0.00393693
0.00397295
0.00397295
0.00393945
0.00393945
0.00397294
0.00393945
0.00393945
0.00397536
0.00393693
0.00397294
0.00393945
0.00393945
0.00393693
0.0039309
0.00389272
0.00392837
0.00392837
0.00389522
0.00389522
0.0039309
0.00389272
0.00392837
0.00392837
0.00389522
0.00389522
0.00392837
0.00389522
0.00389522
0.0039309
0.00389272
0.00392837
0.00389522
0.00389522
0.00389272
0.00388669
0.00384858
0.00388418
0.00388418
0.00385108
0.00385108
0.00388669
0.00384858
0.00388418
0.00388418
0.00385108
0.00385108
0.00388418
0.00385108
0.00385108
0.00388669
0.00384858
0.00388418
0.00385108
0.00385108
0.00384858
0.00384255
0.00380445
0.00384005
0.00384005
0.00380695
0.00380695
0.00384255
0.00380445
0.00384005
0.00384005
0.00380695
0.00380695
0.00384005
0.00380695
0.00380695
0.00384255
0.00380445
0.00384005
0.00380695
0.00380695
0.00380445
0.00379843
0.00376033
0.00379592
0.00379592
0.00376283
0.00376283
0.00379843
0.00376033
0.00379592
0.00379592
0.00376283
0.00376283
0.00379592
0.00376283
0.00376283
0.00379843
0.00376033
0.00379592
0.00376283
0.00376283
0.00376033
0.00375431
0.00371621
0.0037518
0.0037518
0.00371871
0.00371871
0.00375431
0.00371621
0.0037518
0.0037518
0.00371871
0.00371871
0.0037518
0.00371871
0.00371871
0.00375431
0.00371621
0.0037518
0.00371871
0.00371871
0.00371621
0.00371019
0.00367209
0.00370768
0.00370768
0.00367459
0.00367459
0.00371019
0.00367209
0.00370768
0.00370768
0.00367459
0.00367459
0.00370768
0.00367459
0.00367459
0.00371019
0.00367209
0.00370768
0.00367459
0.00367459
0.00367209
0.00366606
0.00362796
0.00366356
0.00366356
0.00363046
0.00363046
0.00366606
0.00362796
0.00366356
0.00366356
0.00363046
0.00363046
0.00366356
0.00363046
0.00363046
0.00366606
0.00362796
0.00366356
0.00363046
0.00363046
0.00362796
0.00362194
0.00358384
0.00361943
0.00361943
0.00358634
0.00358634
0.00362194
0.00358384
0.00361943
0.00361943
0.00358634
0.00358634
0.00361943
0.00358634
0.00358634
0.00362194
0.00358384
0.00361943
0.00358634
0.00358634
0.00358384
0.00357781
0.00353971
0.00357531
0.00357531
0.00354221
0.00354221
0.00357781
0.00353971
0.0035753
0.00357531
0.00354221
0.00354221
0.00357531
0.00354221
0.00354221
0.00357781
0.00353971
0.00357531
0.00354221
0.00354221
0.00353971
0.00353368
0.00349558
0.00353118
0.00353118
0.00349808
0.00349808
0.00353369
0.00349558
0.00353118
0.00353118
0.00349808
0.00349808
0.00353118
0.00349808
0.00349808
0.00353368
0.00349558
0.00353118
0.00349808
0.00349808
0.00349558
0.00348956
0.00345145
0.00348705
0.00348705
0.00345395
0.00345395
0.00348956
0.00345145
0.00348705
0.00348705
0.00345395
0.00345395
0.00348705
0.00345395
0.00345395
0.00348956
0.00345145
0.00348705
0.00345395
0.00345395
0.00345145
0.00344543
0.00340733
0.00344292
0.00344292
0.00340982
0.00340982
0.00344543
0.00340733
0.00344292
0.00344292
0.00340982
0.00340982
0.00344292
0.00340982
0.00340982
0.00344543
0.00340733
0.00344292
0.00340982
0.00340982
0.00340733
0.0034013
0.0033632
0.00339879
0.00339879
0.0033657
0.0033657
0.0034013
0.0033632
0.00339879
0.00339879
0.0033657
0.0033657
0.00339879
0.0033657
0.0033657
0.0034013
0.0033632
0.00339879
0.0033657
0.0033657
0.0033632
0.00335717
0.00331907
0.00335466
0.00335466
0.00332157
0.00332156
0.00335717
0.00331906
0.00335466
0.00335466
0.00332157
0.00332157
0.00335466
0.00332156
0.00332157
0.00335717
0.00331907
0.00335466
0.00332157
0.00332157
0.00331907
0.00331304
0.00327494
0.00331053
0.00331053
0.00327744
0.00327744
0.00331304
0.00327494
0.00331053
0.00331053
0.00327744
0.00327744
0.00331053
0.00327744
0.00327744
0.00331304
0.00327494
0.00331053
0.00327744
0.00327744
0.00327494
0.00326891
0.00323081
0.0032664
0.0032664
0.00323331
0.00323331
0.00326891
0.00323081
0.0032664
0.0032664
0.00323331
0.00323331
0.0032664
0.00323331
0.00323331
0.00326891
0.00323081
0.0032664
0.00323331
0.00323331
0.00323081
0.00322478
0.00318668
0.00322227
0.00322227
0.00318918
0.00318918
0.00322478
0.00318668
0.00322227
0.00322227
0.00318918
0.00318918
0.00322227
0.00318918
0.00318918
0.00322478
0.00318668
0.00322227
0.00318918
0.00318918
0.00318668
0.00318065
0.00314255
0.00317815
0.00317815
0.00314505
0.00314505
0.00318065
0.00314255
0.00317814
0.00317815
0.00314505
0.00314505
0.00317815
0.00314505
0.00314505
0.00318065
0.00314255
0.00317815
0.00314505
0.00314505
0.00314255
0.00313652
0.00309842
0.00313402
0.00313401
0.00310092
0.00310092
0.00313652
0.00309842
0.00313401
0.00313402
0.00310092
0.00310092
0.00313402
0.00310092
0.00310092
0.00313652
0.00309842
0.00313402
0.00310092
0.00310092
0.00309842
0.00309239
0.00305429
0.00308988
0.00308988
0.00305679
0.00305679
0.00309239
0.00305429
0.00308988
0.00308988
0.00305679
0.00305679
0.00308988
0.00305679
0.00305679
0.00309239
0.00305429
0.00308988
0.00305679
0.00305679
0.00305429
0.00304826
0.00301016
0.00304575
0.00304575
0.00301266
0.00301266
0.00304826
0.00301016
0.00304575
0.00304575
0.00301266
0.00301266
0.00304575
0.00301266
0.00301266
0.00304826
0.00301016
0.00304575
0.00301266
0.00301266
0.00301016
0.00300413
0.00296603
0.00300163
0.00300163
0.00296853
0.00296853
0.00300413
0.00296603
0.00300163
0.00300163
0.00296853
0.00296853
0.00300163
0.00296853
0.00296853
0.00300413
0.00296603
0.00300163
0.00296853
0.00296853
0.00296603
0.00296
0.0029219
0.0029575
0.0029575
0.0029244
0.0029244
0.00296
0.0029219
0.0029575
0.0029575
0.0029244
0.0029244
0.0029575
0.0029244
0.0029244
0.00296
0.0029219
0.0029575
0.0029244
0.0029244
0.0029219
0.00291588
0.00287777
0.00291337
0.00291337
0.00288027
0.00288027
0.00291588
0.00287777
0.00291337
0.00291337
0.00288027
0.00288027
0.00291337
0.00288027
0.00288027
0.00291588
0.00287777
0.00291337
0.00288027
0.00288027
0.00287777
0.00287175
0.00286924
0.00286924
0.00287175
0.00286924
0.00286924
0.00286924
0.00287175
0.00286924
0.00420117
0.00421074
0.00420564
0.00420564
0.00422788
0.00421469
0.00424292
0.00420883
0.00422788
0.0042147
0.00420883
0.00424292
0.00421926
0.00424667
0.00424667
0.0041562
0.00418178
0.00418432
0.0041459
0.00416033
0.00414654
0.00415617
0.00418177
0.00418431
0.00414588
0.00417974
0.00417974
0.00417974
0.00413538
0.00413538
0.00413538
0.00413538
0.00415431
0.00418126
0.0041799
0.00416304
0.00418374
0.00415094
0.00416385
0.00416041
0.00414655
0.00415432
0.0041799
0.00418127
0.00416305
0.00418374
0.00416385
0.00415094
0.00418488
0.00418487
0.00415721
0.00415156
0.00415156
0.00410945
0.00413007
0.00413067
0.00410767
0.00412866
0.00410723
0.00410945
0.00413006
0.00413067
0.00410766
0.00412334
0.00412334
0.00412334
0.00408613
0.00408613
0.00408613
0.00408613
0.00410815
0.0041295
0.00412378
0.00411185
0.00412812
0.00410822
0.00411168
0.00412866
0.00410722
0.00410815
0.00412378
0.0041295
0.00411185
0.00412812
0.00411168
0.00410822
0.00413084
0.00413084
0.0041086
0.00410869
0.00410869
0.00405699
0.00407658
0.00407766
0.00405604
0.00407617
0.00405576
0.00405699
0.00407658
0.00407766
0.00405604
0.00407297
0.00407297
0.00407297
0.00403381
0.00403381
0.00403381
0.00403381
0.00405623
0.00407679
0.00407296
0.00405981
0.00407631
0.00405645
0.00405977
0.00407617
0.00405575
0.00405623
0.00407296
0.00407679
0.00405981
0.00407631
0.00405977
0.00405645
0.00407721
0.00407721
0.00405646
0.00405654
0.00405654
0.00400479
0.00402308
0.00402418
0.00400394
0.00402281
0.00400358
0.00400479
0.00402309
0.00402417
0.00400394
0.00402108
0.00402108
0.00402108
0.00398455
0.00398455
0.00398455
0.00398455
0.00400465
0.00402354
0.00402093
0.00400832
0.00402354
0.00400454
0.00400841
0.00402281
0.00400358
0.00400465
0.00402093
0.00402354
0.00400832
0.00402354
0.0040084
0.00400454
0.00402345
0.00402345
0.00400514
0.00400409
0.0040041
0.00395854
0.00397495
0.0039751
0.00395849
0.0039748
0.00395844
0.00395854
0.00397495
0.00397511
0.00395849
0.00397307
0.00397307
0.00397307
0.0039395
0.0039395
0.0039395
0.0039395
0.00395877
0.00397533
0.00397298
0.00396171
0.00397535
0.00395875
0.00396173
0.0039748
0.00395845
0.00395877
0.00397298
0.00397532
0.00396171
0.00397535
0.00396173
0.00395875
0.00397507
0.00397508
0.00395912
0.0039586
0.0039586
0.00391455
0.00393102
0.00393106
0.00391454
0.00393106
0.00391453
0.00391455
0.00393103
0.00393106
0.00391454
0.00392842
0.00392842
0.00392842
0.00389526
0.00389526
0.00389526
0.00389526
0.00391461
0.00393104
0.00392838
0.00391731
0.00393105
0.00391457
0.00391732
0.00393105
0.00391454
0.00391461
0.00392838
0.00393105
0.00391731
0.00393105
0.00391732
0.00391457
0.00393108
0.00393108
0.00391481
0.00391455
0.00391455
0.00387042
0.00388693
0.00388694
0.00387041
0.00388693
0.00387041
0.00387042
0.00388693
0.00388694
0.00387041
0.00388422
0.00388422
0.00388422
0.00385111
0.00385111
0.00385111
0.00385111
0.00387046
0.00388691
0.00388419
0.00387315
0.0038869
0.00387044
0.00387316
0.00388693
0.00387041
0.00387046
0.00388419
0.00388691
0.00387315
0.0038869
0.00387316
0.00387044
0.00388694
0.00388694
0.00387065
0.00387041
0.00387041
0.00382629
0.0038428
0.0038428
0.00382629
0.0038428
0.00382628
0.00382629
0.0038428
0.0038428
0.00382629
0.00384008
0.00384008
0.00384008
0.00380698
0.00380698
0.00380698
0.00380698
0.00382633
0.00384278
0.00384006
0.00382902
0.00384276
0.00382631
0.00382902
0.0038428
0.00382629
0.00382633
0.00384006
0.00384278
0.00382902
0.00384276
0.00382902
0.00382631
0.00384281
0.00384281
0.00382652
0.00382628
0.00382628
0.00378217
0.00379868
0.00379868
0.00378216
0.00379868
0.00378216
0.00378217
0.00379868
0.00379868
0.00378216
0.00379595
0.00379595
0.00379595
0.00376286
0.00376286
0.00376286
0.00376286
0.00378221
0.00379865
0.00379593
0.00378489
0.00379864
0.00378219
0.0037849
0.00379868
0.00378216
0.00378221
0.00379593
0.00379865
0.00378489
0.00379864
0.0037849
0.00378219
0.00379868
0.00379868
0.00378239
0.00378216
0.00378216
0.00373805
0.00375456
0.00375456
0.00373805
0.00375456
0.00373804
0.00373804
0.00375456
0.00375456
0.00373804
0.00375183
0.00375183
0.00375183
0.00371874
0.00371874
0.00371874
0.00371874
0.00373809
0.00375453
0.00375181
0.00374077
0.00375452
0.00373807
0.00374078
0.00375456
0.00373804
0.00373809
0.00375181
0.00375453
0.00374077
0.00375452
0.00374078
0.00373807
0.00375456
0.00375456
0.00373827
0.00373804
0.00373804
0.00369392
0.00371043
0.00371044
0.00369392
0.00371044
0.00369392
0.00369392
0.00371044
0.00371044
0.00369392
0.00370771
0.00370771
0.00370771
0.00367462
0.00367462
0.00367462
0.00367462
0.00369397
0.00371041
0.00370769
0.00369665
0.00371039
0.00369395
0.00369666
0.00371044
0.00369392
0.00369397
0.00370769
0.00371041
0.00369665
0.00371039
0.00369666
0.00369395
0.00371044
0.00371044
0.00369415
0.00369392
0.00369392
0.0036498
0.00366631
0.00366631
0.0036498
0.00366631
0.0036498
0.0036498
0.00366631
0.00366632
0.0036498
0.00366359
0.00366359
0.00366359
0.00363049
0.00363049
0.00363049
0.00363049
0.00364984
0.00366629
0.00366356
0.00365253
0.00366627
0.00364982
0.00365253
0.00366631
0.0036498
0.00364984
0.00366356
0.00366629
0.00365253
0.00366627
0.00365253
0.00364982
0.00366632
0.00366632
0.00365003
0.00364979
0.00364979
0.00360567
0.00362219
0.00362219
0.00360567
0.00362219
0.00360567
0.00360567
0.00362219
0.00362219
0.00360567
0.00361946
0.00361946
0.00361946
0.00358637
0.00358637
0.00358637
0.00358637
0.00360572
0.00362216
0.00361944
0.0036084
0.00362215
0.0036057
0.00360841
0.00362219
0.00360567
0.00360572
0.00361944
0.00362216
0.0036084
0.00362215
0.00360841
0.0036057
0.00362219
0.00362219
0.0036059
0.00360567
0.00360567
0.00356155
0.00357806
0.00357806
0.00356155
0.00357806
0.00356154
0.00356155
0.00357806
0.00357806
0.00356155
0.00357534
0.00357534
0.00357534
0.00354224
0.00354224
0.00354224
0.00354224
0.00356159
0.00357804
0.00357531
0.00356427
0.00357802
0.00356157
0.00356428
0.00357806
0.00356154
0.00356159
0.00357531
0.00357804
0.00356427
0.00357802
0.00356428
0.00356157
0.00357807
0.00357807
0.00356177
0.00356154
0.00356154
0.00351742
0.00353393
0.00353394
0.00351742
0.00353394
0.00351742
0.00351742
0.00353393
0.00353394
0.00351742
0.00353121
0.00353121
0.00353121
0.00349811
0.00349811
0.00349811
0.00349811
0.00351746
0.00353391
0.00353119
0.00352015
0.00353389
0.00351744
0.00352015
0.00353394
0.00351742
0.00351746
0.00353119
0.00353391
0.00352015
0.00353389
0.00352015
0.00351744
0.00353394
0.00353394
0.00351765
0.00351741
0.00351741
0.00347329
0.00348981
0.00348981
0.00347329
0.0034898
0.00347329
0.00347329
0.00348981
0.00348981
0.00347329
0.00348708
0.00348708
0.00348708
0.00345398
0.00345398
0.00345398
0.00345398
0.00347333
0.00348978
0.00348706
0.00347602
0.00348976
0.00347331
0.00347602
0.00348981
0.00347329
0.00347333
0.00348706
0.00348978
0.00347602
0.00348976
0.00347602
0.00347331
0.00348981
0.00348981
0.00347352
0.00347328
0.00347328
0.00342916
0.00344568
0.00344568
0.00342916
0.00344568
0.00342916
0.00342916
0.00344568
0.00344568
0.00342916
0.00344295
0.00344295
0.00344295
0.00340986
0.00340986
0.00340986
0.00340986
0.00342921
0.00344565
0.00344293
0.00343189
0.00344564
0.00342919
0.0034319
0.00344568
0.00342916
0.00342921
0.00344293
0.00344565
0.00343189
0.00344564
0.0034319
0.00342919
0.00344568
0.00344568
0.00342939
0.00342916
0.00342916
0.00338503
0.00340155
0.00340155
0.00338503
0.00340155
0.00338503
0.00338503
0.00340155
0.00340155
0.00338503
0.00339882
0.00339882
0.00339882
0.00336573
0.00336573
0.00336573
0.00336573
0.00338508
0.00340152
0.0033988
0.00338776
0.00340151
0.00338506
0.00338777
0.00340155
0.00338503
0.00338508
0.0033988
0.00340152
0.00338776
0.00340151
0.00338777
0.00338506
0.00340155
0.00340155
0.00338526
0.00338503
0.00338503
0.0033409
0.00335742
0.00335742
0.0033409
0.00335742
0.0033409
0.0033409
0.00335742
0.00335742
0.0033409
0.00335469
0.00335469
0.00335469
0.0033216
0.0033216
0.0033216
0.0033216
0.00334095
0.00335739
0.00335467
0.00334363
0.00335738
0.00334093
0.00334364
0.00335742
0.0033409
0.00334095
0.00335467
0.00335739
0.00334363
0.00335738
0.00334364
0.00334093
0.00335743
0.00335743
0.00334113
0.0033409
0.0033409
0.00329677
0.00331329
0.00331329
0.00329677
0.00331328
0.00329678
0.00329677
0.00331329
0.00331329
0.00329677
0.00331056
0.00331056
0.00331056
0.00327747
0.00327747
0.00327747
0.00327747
0.00329682
0.00331326
0.00331054
0.0032995
0.00331325
0.0032968
0.00329951
0.00331329
0.00329677
0.00329682
0.00331054
0.00331326
0.0032995
0.00331325
0.00329951
0.0032968
0.0033133
0.0033133
0.003297
0.00329677
0.00329677
0.00325264
0.00326916
0.00326916
0.00325264
0.00326915
0.00325265
0.00325264
0.00326916
0.00326916
0.00325264
0.00326644
0.00326644
0.00326644
0.00323334
0.00323334
0.00323334
0.00323334
0.00325269
0.00326914
0.00326641
0.00325537
0.00326912
0.00325267
0.00325538
0.00326916
0.00325264
0.00325269
0.00326641
0.00326914
0.00325537
0.00326912
0.00325538
0.00325267
0.00326917
0.00326917
0.00325287
0.00325264
0.00325264
0.00320852
0.00322503
0.00322503
0.00320851
0.00322503
0.00320851
0.00320852
0.00322503
0.00322503
0.00320851
0.00322231
0.00322231
0.00322231
0.00318921
0.00318921
0.00318921
0.00318921
0.00320856
0.00322501
0.00322228
0.00321124
0.00322499
0.00320854
0.00321125
0.00322503
0.00320851
0.00320856
0.00322228
0.00322501
0.00321124
0.00322499
0.00321125
0.00320854
0.00322504
0.00322504
0.00320874
0.00320851
0.00320851
0.00316439
0.0031809
0.0031809
0.00316438
0.0031809
0.00316438
0.00316439
0.0031809
0.0031809
0.00316438
0.00317818
0.00317818
0.00317818
0.00314508
0.00314508
0.00314508
0.00314508
0.00316443
0.00318088
0.00317815
0.00316711
0.00318086
0.00316441
0.00316712
0.0031809
0.00316438
0.00316443
0.00317815
0.00318088
0.00316711
0.00318086
0.00316712
0.00316441
0.00318091
0.00318091
0.00316461
0.00316438
0.00316438
0.00312026
0.00313677
0.00313677
0.00312025
0.00313677
0.00312025
0.00312026
0.00313677
0.00313677
0.00312025
0.00313405
0.00313405
0.00313405
0.00310095
0.00310095
0.00310095
0.00310095
0.0031203
0.00313675
0.00313402
0.00312298
0.00313673
0.00312028
0.00312299
0.00313677
0.00312025
0.0031203
0.00313402
0.00313675
0.00312298
0.00313673
0.00312299
0.00312028
0.00313678
0.00313678
0.00312048
0.00312025
0.00312025
0.00307613
0.00309264
0.00309264
0.00307612
0.00309264
0.00307612
0.00307613
0.00309264
0.00309264
0.00307612
0.00308992
0.00308992
0.00308992
0.00305682
0.00305682
0.00305682
0.00305682
0.00307617
0.00309262
0.00308989
0.00307885
0.0030926
0.00307615
0.00307886
0.00309264
0.00307612
0.00307617
0.00308989
0.00309262
0.00307885
0.0030926
0.00307886
0.00307615
0.00309265
0.00309265
0.00307635
0.00307612
0.00307612
0.003032
0.00304851
0.00304851
0.00303199
0.00304851
0.00303199
0.003032
0.00304851
0.00304851
0.00303199
0.00304579
0.00304579
0.00304579
0.00301269
0.00301269
0.00301269
0.00301269
0.00303204
0.00304849
0.00304576
0.00303472
0.00304847
0.00303202
0.00303473
0.00304851
0.00303199
0.00303204
0.00304576
0.00304849
0.00303472
0.00304847
0.00303473
0.00303202
0.00304852
0.00304852
0.00303222
0.00303199
0.00303199
0.00298787
0.00300438
0.00300438
0.00298787
0.00300438
0.00298786
0.00298787
0.00300438
0.00300438
0.00298787
0.00300166
0.00300166
0.00300166
0.00296856
0.00296856
0.00296856
0.00296856
0.00298791
0.00300436
0.00300163
0.00299059
0.00300434
0.00298789
0.0029906
0.00300438
0.00298786
0.00298791
0.00300163
0.00300436
0.00299059
0.00300434
0.0029906
0.00298789
0.00300439
0.00300439
0.00298809
0.00298786
0.00298786
0.00294374
0.00296025
0.00296026
0.00294374
0.00296026
0.00294374
0.00294374
0.00296025
0.00296026
0.00294374
0.00295753
0.00295753
0.00295753
0.00292443
0.00292443
0.00292443
0.00292443
0.00294378
0.00296023
0.0029575
0.00294646
0.00296021
0.00294376
0.00294647
0.00296026
0.00294373
0.00294378
0.0029575
0.00296023
0.00294646
0.00296021
0.00294647
0.00294376
0.00296026
0.00296026
0.00294397
0.00294373
0.00294373
0.00289961
0.00291613
0.00291613
0.00289961
0.00291613
0.00289961
0.00289961
0.00291613
0.00291613
0.00289961
0.0029134
0.0029134
0.0029134
0.0028803
0.0028803
0.0028803
0.0028803
0.00289965
0.0029161
0.00291338
0.00290234
0.00291608
0.00289963
0.00290234
0.00291613
0.00289961
0.00289965
0.00291338
0.0029161
0.00290234
0.00291608
0.00290234
0.00289963
0.00291613
0.00291613
0.00289984
0.0028996
0.0028996
0.00285548
0.002872
0.002872
0.00285548
0.002872
0.00285548
0.00285548
0.002872
0.002872
0.00285548
0.00286927
0.00286927
0.00286927
0.00285553
0.00287197
0.00286925
0.00285821
0.00287196
0.0028555
0.00285822
0.002872
0.00285548
0.00285553
0.00286925
0.00287197
0.00285821
0.00287196
0.00285822
0.0028555
0.002872
0.002872
0.00285571
0.00285547
0.00285547
0.00421926
0.00424666
0.00424667
0.00421189
0.00424576
0.00421185
0.00424577
0.00421605
0.00420207
0.00420208
0.00424145
0.00424146
0.00422786
0.0042147
0.00424291
0.00420882
0.00422786
0.00421469
0.00424291
0.00420882
0.00423207
0.00420603
0.00424296
0.00419765
0.00423207
0.00420602
0.00424296
0.00419766
0.00422353
0.00421216
0.00419673
0.00419525
0.00423821
0.00420724
0.00419594
0.00422354
0.00421216
0.00419673
0.00419524
0.00423821
0.00420724
0.00419594
0.00421926
0.00424666
0.00424667
0.00421185
0.00424576
0.00421605
0.00420206
0.00420208
0.00424145
0.00424145
0.00421187
0.00424576
0.00422788
0.0042147
0.00424293
0.00420883
0.00422788
0.0042147
0.00420883
0.00424293
0.00423209
0.00420603
0.00424298
0.00419767
0.00422355
0.00421217
0.00419673
0.00419525
0.00423822
0.00420724
0.00419595
0.00423209
0.00420604
0.00424297
0.00419766
0.00422355
0.00421217
0.00419525
0.00419674
0.00420725
0.00423822
0.00419595
0.00420117
0.00421074
0.00420564
0.00420564
0.00420117
0.00421074
0.00420564
0.00420564
0.00420117
0.00421074
0.00420564
0.00420564
0.00419992
0.00420881
0.00419203
0.00419203
0.00420421
0.00420421
0.00419023
0.00419992
0.0042088
0.00419203
0.00419203
0.00420421
0.00420421
0.00419023
0.00419993
0.00420881
0.00419203
0.00419203
0.00420421
0.00420421
0.00419023
0.00419993
0.00420881
0.00419203
0.00419203
0.00420421
0.00420421
0.00419023
0.00422788
0.0042147
0.00420883
0.00424292
0.00422355
0.00421216
0.00419673
0.00419525
0.00423821
0.00420724
0.00419595
0.0042321
0.00420604
0.00424297
0.00419767
0.00422355
0.00421217
0.00419525
0.00419673
0.00420724
0.00423821
0.00419595
0.00423209
0.00420603
0.00424297
0.00419766
0.00421926
0.00424667
0.00424667
0.00421183
0.00424576
0.00421606
0.00420208
0.00420208
0.00424146
0.00424146
0.00421182
0.00424577
0.00422788
0.0042147
0.00420883
0.00424292
0.00422355
0.00421217
0.00419525
0.00419674
0.00420725
0.00423822
0.00419595
0.00422355
0.00421217
0.00419525
0.00419674
0.00420725
0.00423822
0.00419595
0.00423209
0.00420603
0.00424297
0.00419766
0.0042321
0.00420605
0.00424298
0.00419767
0.00421606
0.00420208
0.00420208
0.00424146
0.00424146
0.00421183
0.00424576
0.00421186
0.00424577
0.00416033
0.00414654
0.00416041
0.00414653
0.00418484
0.00418487
0.00415722
0.00415156
0.00415156
0.00413576
0.00414905
0.00413576
0.00414904
0.00415019
0.00413784
0.00413783
0.00414913
0.00414913
0.00415619
0.00418177
0.00418432
0.00414589
0.00415433
0.00418126
0.0041799
0.00416304
0.00418374
0.00415095
0.00416385
0.00415433
0.00418125
0.0041799
0.00416304
0.00418374
0.00415095
0.00416385
0.00415121
0.00413726
0.00414609
0.00413716
0.00415121
0.00413726
0.00414609
0.00413716
0.00414854
0.00414839
0.00413637
0.00413586
0.004148
0.00414892
0.00413438
0.00414854
0.00414839
0.00413637
0.00413586
0.00414801
0.00414892
0.00413438
0.00418483
0.00418488
0.00415723
0.00415156
0.00415157
0.00416045
0.00414653
0.00413576
0.00414905
0.00415019
0.00413783
0.00413783
0.00414914
0.00414913
0.00413576
0.00414905
0.00415431
0.00418126
0.0041799
0.00416305
0.00418374
0.00415094
0.00416385
0.00415618
0.00418178
0.0041843
0.00414589
0.00415432
0.0041799
0.00418126
0.00416304
0.00418374
0.00416385
0.00415094
0.0041512
0.00413726
0.00414608
0.00413716
0.00414852
0.00414839
0.00413637
0.00413586
0.004148
0.00414892
0.00413438
0.0041512
0.00413725
0.00414609
0.00413716
0.00414853
0.00414839
0.00413586
0.00413636
0.00414892
0.004148
0.00413438
0.00415617
0.00418178
0.00418431
0.00414588
0.00415432
0.0041799
0.00418127
0.00416304
0.00418374
0.00416385
0.00415094
0.00415618
0.00418179
0.0041843
0.00414589
0.00414852
0.00414839
0.00413637
0.00413586
0.00414799
0.00414892
0.00413438
0.0041512
0.00413725
0.00414608
0.00413716
0.00414853
0.00414839
0.00413586
0.00413637
0.00414892
0.00414799
0.00413438
0.0041512
0.00413726
0.00414607
0.00413716
0.00418487
0.00418488
0.0041572
0.00415156
0.00415156
0.00416041
0.00414653
0.00413576
0.00414906
0.00415019
0.00413783
0.00413784
0.00414913
0.00414912
0.00413576
0.00414902
0.00415431
0.0041799
0.00418126
0.00416305
0.00418374
0.00416385
0.00415094
0.00415618
0.00418178
0.0041843
0.00414588
0.00415617
0.00418179
0.00418431
0.00414588
0.00414853
0.00414839
0.00413586
0.00413637
0.00414892
0.00414799
0.00413437
0.00414852
0.00414839
0.00413586
0.00413637
0.00414892
0.00414799
0.00413437
0.0041512
0.00413725
0.00414608
0.00413716
0.0041512
0.00413725
0.00414608
0.00413716
0.00416043
0.00414653
0.00416043
0.00414653
0.00415019
0.00413784
0.00413783
0.00414912
0.00414913
0.00413577
0.00414902
0.00413576
0.00414904
0.00412866
0.00410723
0.00412866
0.00410722
0.00413084
0.00413084
0.0041086
0.00410869
0.00410869
0.00408295
0.00410075
0.00408295
0.00410074
0.00410153
0.00408394
0.00408394
0.00410214
0.00410213
0.00410945
0.00413007
0.00413067
0.00410767
0.00410816
0.0041295
0.00412378
0.00411185
0.00412812
0.00410822
0.00411168
0.00410816
0.0041295
0.00412378
0.00411185
0.00412812
0.00410822
0.00411168
0.00410277
0.00408335
0.00410129
0.00408421
0.00410277
0.00408335
0.00410129
0.00408422
0.00410154
0.00409908
0.00408348
0.00408612
0.00410178
0.00409912
0.0040829
0.00410154
0.00409908
0.00408348
0.00408612
0.00410178
0.00409912
0.0040829
0.00413084
0.00413084
0.00410861
0.00410869
0.00410869
0.00412867
0.00410723
0.00408295
0.00410075
0.00410153
0.00408394
0.00408394
0.00410214
0.00410214
0.00408295
0.00410075
0.00410815
0.0041295
0.00412378
0.00411185
0.00412812
0.00410822
0.00411168
0.00410945
0.00413006
0.00413067
0.00410767
0.00410815
0.00412378
0.0041295
0.00411185
0.00412812
0.00411168
0.00410822
0.00410276
0.00408335
0.00410128
0.00408422
0.00410154
0.00409908
0.00408348
0.00408612
0.00410178
0.00409912
0.0040829
0.00410277
0.00408335
0.00410128
0.00408421
0.00410154
0.00409908
0.00408612
0.00408348
0.00409911
0.00410177
0.0040829
0.00410945
0.00413007
0.00413067
0.00410767
0.00410815
0.00412378
0.0041295
0.00411185
0.00412812
0.00411168
0.00410822
0.00410945
0.00413007
0.00413067
0.00410767
0.00410154
0.00409908
0.00408348
0.00408612
0.00410177
0.00409912
0.0040829
0.00410277
0.00408335
0.00410129
0.00408422
0.00410154
0.00409908
0.00408612
0.00408348
0.00409912
0.00410177
0.0040829
0.00410277
0.00408335
0.00410128
0.00408422
0.00413083
0.00413084
0.0041086
0.00410869
0.00410869
0.00412866
0.00410723
0.00408295
0.00410074
0.00410153
0.00408394
0.00408394
0.00410213
0.00410213
0.00408295
0.00410074
0.00410815
0.00412378
0.0041295
0.00411185
0.00412812
0.00411168
0.00410822
0.00410945
0.00413006
0.00413067
0.00410767
0.00410945
0.00413006
0.00413067
0.00410767
0.00410154
0.00409908
0.00408612
0.00408348
0.00409912
0.00410178
0.0040829
0.00410154
0.00409908
0.00408612
0.00408348
0.00409912
0.00410178
0.0040829
0.00410277
0.00408335
0.00410129
0.00408421
0.00410277
0.00408335
0.00410129
0.00408421
0.00412867
0.00410722
0.00412865
0.00410723
0.00410153
0.00408394
0.00408394
0.00410213
0.00410214
0.00408295
0.00410074
0.00408295
0.00410075
0.00407617
0.00405575
0.00407617
0.00405575
0.0040772
0.00407721
0.00405646
0.00405654
0.00405654
0.00402951
0.00404949
0.00402951
0.00404949
0.00404928
0.00403019
0.00403019
0.00405025
0.00405025
0.00405699
0.00407658
0.00407766
0.00405604
0.00405623
0.00407679
0.00407296
0.00405981
0.00407631
0.00405645
0.00405977
0.00405623
0.00407679
0.00407296
0.00405981
0.00407631
0.00405645
0.00405977
0.0040506
0.00402975
0.00404973
0.00403084
0.0040506
0.00402976
0.00404973
0.00403084
0.00404969
0.0040466
0.00403019
0.00403369
0.00405001
0.00404662
0.00403019
0.00404969
0.0040466
0.00403019
0.00403369
0.00405001
0.00404662
0.00403019
0.0040772
0.00407721
0.00405646
0.00405654
0.00405654
0.00407618
0.00405575
0.00402951
0.00404949
0.00404928
0.00403019
0.00403019
0.00405025
0.00405025
0.00402951
0.00404949
0.00405623
0.00407679
0.00407296
0.00405981
0.00407631
0.00405644
0.00405977
0.00405699
0.00407658
0.00407766
0.00405604
0.00405623
0.00407296
0.00407679
0.00405981
0.00407631
0.00405977
0.00405645
0.0040506
0.00402976
0.00404973
0.00403084
0.00404969
0.0040466
0.00403019
0.00403369
0.00405001
0.00404662
0.00403019
0.0040506
0.00402976
0.00404973
0.00403084
0.00404969
0.0040466
0.00403369
0.00403019
0.00404662
0.00405001
0.00403019
0.00405699
0.00407658
0.00407766
0.00405604
0.00405623
0.00407296
0.00407679
0.00405981
0.00407631
0.00405977
0.00405645
0.00405699
0.00407658
0.00407766
0.00405604
0.00404969
0.0040466
0.00403019
0.00403369
0.00405001
0.00404662
0.00403019
0.0040506
0.00402976