/*--------------------------------*- C++ -*----------------------------------*\
| =========                 |                                                 |
| \\      /  F ield         | OpenFOAM: The Open Source CFD Toolbox           |
|  \\    /   O peration     | Version:  v1912                                 |
|   \\  /    A nd           | Website:  www.openfoam.com                      |
|    \\/     M anipulation  |                                                 |
\*---------------------------------------------------------------------------*/
FoamFile
{
    version     2.0;
    format      ascii;
    class       volScalarField;
    location    "40";
    object      epsilon;
}
// * * * * * * * * * * * * * * * * * * * * * * * * * * * * * * * * * * * * * //

dimensions      [0 2 -3 0 0 0 0];


internalField   nonuniform List<scalar> 
171728
(
4.95564e-07
4.97334e-07
4.97334e-07
4.99569e-07
4.45574e-07
4.5375e-07
4.53752e-07
4.63723e-07
4.0376e-07
4.18526e-07
4.1853e-07
4.39418e-07
3.68369e-07
3.88554e-07
3.8856e-07
4.17657e-07
3.37976e-07
3.62075e-07
3.62083e-07
3.96065e-07
3.11686e-07
3.38285e-07
3.38294e-07
3.74569e-07
2.88401e-07
3.16525e-07
3.16535e-07
3.53635e-07
2.68041e-07
2.97031e-07
2.97041e-07
3.33928e-07
2.47873e-07
2.76192e-07
2.76203e-07
3.12685e-07
2.35841e-07
2.64258e-07
2.64269e-07
2.98015e-07
2.32588e-07
2.62375e-07
2.62385e-07
2.97208e-07
2.32236e-07
2.62415e-07
2.62425e-07
2.978e-07
2.32248e-07
2.6249e-07
2.62501e-07
2.98007e-07
2.32254e-07
2.62537e-07
2.62548e-07
2.98111e-07
2.32257e-07
2.62566e-07
2.62577e-07
2.98152e-07
2.32259e-07
2.62578e-07
2.6259e-07
2.98156e-07
2.32259e-07
2.62579e-07
2.62591e-07
2.98156e-07
2.32259e-07
2.62579e-07
2.62591e-07
2.98157e-07
2.32259e-07
2.62579e-07
2.62591e-07
2.98156e-07
2.32259e-07
2.62579e-07
2.62591e-07
2.98157e-07
2.32259e-07
2.62579e-07
2.62591e-07
2.98157e-07
2.32259e-07
2.6258e-07
2.62591e-07
2.98157e-07
2.32259e-07
2.6258e-07
2.62591e-07
2.98156e-07
2.32258e-07
2.6258e-07
2.62591e-07
2.98156e-07
2.32258e-07
2.6258e-07
2.62591e-07
2.98157e-07
2.32258e-07
2.6258e-07
2.62591e-07
2.98157e-07
2.32258e-07
2.62581e-07
2.62591e-07
2.98157e-07
2.32259e-07
2.6258e-07
2.62591e-07
2.98157e-07
2.32258e-07
2.6258e-07
2.62591e-07
2.98157e-07
2.32258e-07
2.6258e-07
2.62599e-07
2.98157e-07
5.06419e-07
5.05584e-07
5.05583e-07
5.06419e-07
5.05583e-07
5.05583e-07
5.09649e-07
5.09649e-07
5.09649e-07
5.09649e-07
5.05585e-07
5.05584e-07
5.0642e-07
5.05585e-07
5.05583e-07
5.0642e-07
4.99569e-07
4.67247e-07
4.97335e-07
4.9734e-07
4.63737e-07
4.63745e-07
4.99569e-07
4.67244e-07
4.97339e-07
4.9734e-07
4.63741e-07
4.63747e-07
4.97336e-07
4.63733e-07
4.63738e-07
4.99569e-07
4.6725e-07
4.97339e-07
4.63735e-07
4.63742e-07
4.6725e-07
4.63723e-07
4.41424e-07
4.53756e-07
4.53764e-07
4.26753e-07
4.2676e-07
4.63721e-07
4.41417e-07
4.5376e-07
4.53768e-07
4.26753e-07
4.26765e-07
4.53758e-07
4.26744e-07
4.26754e-07
4.63725e-07
4.41428e-07
4.53761e-07
4.26749e-07
4.26755e-07
4.41426e-07
4.39414e-07
4.19272e-07
4.18536e-07
4.18544e-07
3.95673e-07
3.95678e-07
4.39412e-07
4.19264e-07
4.18536e-07
4.1855e-07
3.95668e-07
3.95685e-07
4.1854e-07
3.95661e-07
3.95675e-07
4.39421e-07
4.19278e-07
4.18538e-07
3.95667e-07
3.95669e-07
4.19276e-07
4.17653e-07
3.97629e-07
3.88569e-07
3.88575e-07
3.68448e-07
3.68452e-07
4.17646e-07
3.9762e-07
3.88564e-07
3.88582e-07
3.68439e-07
3.68459e-07
3.88573e-07
3.68433e-07
3.68451e-07
4.17659e-07
3.97635e-07
3.88565e-07
3.6844e-07
3.6844e-07
3.97634e-07
3.9606e-07
3.76072e-07
3.62095e-07
3.621e-07
3.44048e-07
3.44051e-07
3.96052e-07
3.76062e-07
3.62084e-07
3.62107e-07
3.44035e-07
3.44059e-07
3.62099e-07
3.44032e-07
3.44051e-07
3.96066e-07
3.76078e-07
3.62086e-07
3.4404e-07
3.44036e-07
3.76077e-07
3.74564e-07
3.55046e-07
3.38308e-07
3.38311e-07
3.21774e-07
3.21775e-07
3.74556e-07
3.55036e-07
3.38294e-07
3.38319e-07
3.21758e-07
3.21783e-07
3.38311e-07
3.21755e-07
3.21774e-07
3.7457e-07
3.55052e-07
3.38296e-07
3.21765e-07
3.21759e-07
3.55051e-07
3.5363e-07
3.35251e-07
3.16551e-07
3.16554e-07
3.01925e-07
3.01924e-07
3.53621e-07
3.35241e-07
3.16534e-07
3.16561e-07
3.01905e-07
3.01932e-07
3.16553e-07
3.01905e-07
3.01925e-07
3.53636e-07
3.35257e-07
3.16536e-07
3.01916e-07
3.01907e-07
3.35256e-07
3.33923e-07
3.14214e-07
2.9706e-07
2.9706e-07
2.81261e-07
2.81262e-07
3.33915e-07
3.14207e-07
2.97039e-07
2.97067e-07
2.81243e-07
2.8127e-07
2.97061e-07
2.81244e-07
2.81262e-07
3.33929e-07
3.14223e-07
2.97042e-07
2.81255e-07
2.81242e-07
3.14225e-07
3.12674e-07
2.98081e-07
2.7622e-07
2.76222e-07
2.65922e-07
2.65926e-07
3.12669e-07
2.98072e-07
2.76202e-07
2.7623e-07
2.65905e-07
2.65934e-07
2.76221e-07
2.659e-07
2.65925e-07
3.12683e-07
2.98088e-07
2.76201e-07
2.65911e-07
2.65905e-07
2.98093e-07
2.98004e-07
2.96796e-07
2.64285e-07
2.6429e-07
2.62486e-07
2.6249e-07
2.97996e-07
2.96781e-07
2.64267e-07
2.64298e-07
2.62469e-07
2.62498e-07
2.64289e-07
2.62459e-07
2.62488e-07
2.9801e-07
2.96799e-07
2.64268e-07
2.6247e-07
2.62467e-07
2.96795e-07
2.9724e-07
2.97452e-07
2.62405e-07
2.62411e-07
2.62415e-07
2.62421e-07
2.97227e-07
2.97438e-07
2.62388e-07
2.62418e-07
2.62398e-07
2.62428e-07
2.6241e-07
2.62397e-07
2.62423e-07
2.97243e-07
2.97456e-07
2.62388e-07
2.62408e-07
2.62401e-07
2.97469e-07
2.97815e-07
2.97687e-07
2.62445e-07
2.62452e-07
2.625e-07
2.62508e-07
2.97803e-07
2.97672e-07
2.62429e-07
2.62459e-07
2.62484e-07
2.62515e-07
2.62454e-07
2.62477e-07
2.62511e-07
2.97819e-07
2.9769e-07
2.62433e-07
2.62488e-07
2.62489e-07
2.9771e-07
2.98012e-07
2.97793e-07
2.62524e-07
2.62531e-07
2.62558e-07
2.62567e-07
2.97998e-07
2.97777e-07
2.62507e-07
2.62538e-07
2.62542e-07
2.62573e-07
2.62534e-07
2.62529e-07
2.6257e-07
2.98015e-07
2.97795e-07
2.62512e-07
2.6254e-07
2.62548e-07
2.97824e-07
2.98104e-07
2.97849e-07
2.62579e-07
2.62588e-07
2.62597e-07
2.62606e-07
2.98088e-07
2.97832e-07
2.62562e-07
2.62594e-07
2.6258e-07
2.62612e-07
2.6259e-07
2.6256e-07
2.62606e-07
2.98105e-07
2.9785e-07
2.62568e-07
2.62572e-07
2.62584e-07
2.97871e-07
2.98154e-07
2.97881e-07
2.62618e-07
2.62626e-07
2.62614e-07
2.6262e-07
2.98138e-07
2.97864e-07
2.62601e-07
2.62633e-07
2.62595e-07
2.62626e-07
2.62625e-07
2.62578e-07
2.62614e-07
2.98154e-07
2.97882e-07
2.62603e-07
2.6259e-07
2.62592e-07
2.97877e-07
2.98182e-07
2.97892e-07
2.62626e-07
2.62632e-07
2.62616e-07
2.62622e-07
2.98165e-07
2.97873e-07
2.62607e-07
2.62639e-07
2.62598e-07
2.62629e-07
2.62626e-07
2.6258e-07
2.62615e-07
2.98182e-07
2.97892e-07
2.62604e-07
2.62592e-07
2.62593e-07
2.97878e-07
2.98189e-07
2.97891e-07
2.62628e-07
2.62633e-07
2.62618e-07
2.62621e-07
2.98171e-07
2.97873e-07
2.62609e-07
2.6264e-07
2.62599e-07
2.6263e-07
2.62626e-07
2.6258e-07
2.62615e-07
2.98188e-07
2.97891e-07
2.62604e-07
2.62592e-07
2.62594e-07
2.97878e-07
2.98189e-07
2.97891e-07
2.62629e-07
2.62632e-07
2.62618e-07
2.62621e-07
2.9817e-07
2.97873e-07
2.6261e-07
2.62641e-07
2.62599e-07
2.6263e-07
2.62626e-07
2.6258e-07
2.62616e-07
2.98188e-07
2.97892e-07
2.62605e-07
2.62592e-07
2.62594e-07
2.97878e-07
2.98189e-07
2.97892e-07
2.62629e-07
2.62632e-07
2.62619e-07
2.62623e-07
2.9817e-07
2.97873e-07
2.6261e-07
2.62641e-07
2.62599e-07
2.6263e-07
2.62627e-07
2.6258e-07
2.62616e-07
2.98188e-07
2.97891e-07
2.62605e-07
2.62592e-07
2.62594e-07
2.97878e-07
2.9819e-07
2.97893e-07
2.6263e-07
2.62634e-07
2.62618e-07
2.62623e-07
2.9817e-07
2.97872e-07
2.6261e-07
2.62641e-07
2.62599e-07
2.6263e-07
2.62627e-07
2.6258e-07
2.62616e-07
2.98188e-07
2.97891e-07
2.62605e-07
2.62592e-07
2.62594e-07
2.97878e-07
2.9819e-07
2.97892e-07
2.62628e-07
2.62634e-07
2.62616e-07
2.62623e-07
2.9817e-07
2.97872e-07
2.62609e-07
2.62641e-07
2.62598e-07
2.62631e-07
2.62627e-07
2.6258e-07
2.62616e-07
2.98188e-07
2.97891e-07
2.62605e-07
2.62592e-07
2.62594e-07
2.97878e-07
2.9819e-07
2.97892e-07
2.62626e-07
2.62634e-07
2.62615e-07
2.62623e-07
2.9817e-07
2.97873e-07
2.62609e-07
2.62642e-07
2.62598e-07
2.62631e-07
2.62627e-07
2.62581e-07
2.62616e-07
2.98188e-07
2.97891e-07
2.62605e-07
2.62592e-07
2.62594e-07
2.97877e-07
2.98189e-07
2.97891e-07
2.62625e-07
2.62634e-07
2.62614e-07
2.62623e-07
2.98171e-07
2.97873e-07
2.62608e-07
2.62642e-07
2.62597e-07
2.62631e-07
2.62627e-07
2.62581e-07
2.62616e-07
2.98188e-07
2.97891e-07
2.62605e-07
2.62592e-07
2.62594e-07
2.97877e-07
2.98189e-07
2.97891e-07
2.62625e-07
2.62634e-07
2.62614e-07
2.62623e-07
2.98172e-07
2.97874e-07
2.62608e-07
2.62642e-07
2.62597e-07
2.62631e-07
2.62627e-07
2.62581e-07
2.62616e-07
2.98188e-07
2.97891e-07
2.62606e-07
2.62592e-07
2.62595e-07
2.97878e-07
2.98188e-07
2.9789e-07
2.62624e-07
2.62634e-07
2.62614e-07
2.62624e-07
2.98172e-07
2.97874e-07
2.62607e-07
2.62642e-07
2.62596e-07
2.62631e-07
2.62627e-07
2.62581e-07
2.62616e-07
2.98188e-07
2.97891e-07
2.62606e-07
2.62592e-07
2.62596e-07
2.97878e-07
2.98188e-07
2.9789e-07
2.62624e-07
2.62635e-07
2.62613e-07
2.62624e-07
2.98172e-07
2.97874e-07
2.62607e-07
2.62641e-07
2.62596e-07
2.62631e-07
2.62627e-07
2.62581e-07
2.62616e-07
2.98188e-07
2.97891e-07
2.62607e-07
2.62592e-07
2.62596e-07
2.97878e-07
2.98188e-07
2.9789e-07
2.62624e-07
2.62635e-07
2.62613e-07
2.62624e-07
2.98172e-07
2.97874e-07
2.62607e-07
2.62641e-07
2.62597e-07
2.62631e-07
2.62627e-07
2.62581e-07
2.62616e-07
2.98188e-07
2.97891e-07
2.62607e-07
2.62592e-07
2.62596e-07
2.97878e-07
2.98187e-07
2.97889e-07
2.62624e-07
2.62635e-07
2.62613e-07
2.62624e-07
2.98172e-07
2.97874e-07
2.62607e-07
2.62641e-07
2.62597e-07
2.6263e-07
2.62627e-07
2.62581e-07
2.62616e-07
2.98188e-07
2.97891e-07
2.62607e-07
2.62592e-07
2.62597e-07
2.97878e-07
2.98187e-07
2.97889e-07
2.62623e-07
2.62635e-07
2.62612e-07
2.62624e-07
2.98172e-07
2.97874e-07
2.62608e-07
2.62641e-07
2.62597e-07
2.6263e-07
2.62627e-07
2.62581e-07
2.62616e-07
2.98188e-07
2.97891e-07
2.62608e-07
2.62597e-07
2.62597e-07
2.97878e-07
2.98186e-07
2.62623e-07
2.62635e-07
2.98172e-07
2.62607e-07
2.62637e-07
2.62622e-07
2.98188e-07
2.62604e-07
5.35663e-07
5.35601e-07
5.35655e-07
5.35655e-07
5.34573e-07
5.35517e-07
5.33636e-07
5.35654e-07
5.34573e-07
5.35517e-07
5.35654e-07
5.33635e-07
5.35256e-07
5.35988e-07
5.35988e-07
1.10875e-06
3.88064e-06
9.32637e-07
4.60391e-06
1.26056e-05
1.65983e-05
1.10891e-06
3.88088e-06
9.32645e-07
4.60427e-06
4.95565e-07
4.95565e-07
4.95565e-07
4.57238e-07
4.57237e-07
4.57237e-07
4.57237e-07
5.43261e-07
1.22287e-06
4.95564e-07
4.85541e-07
5.25242e-07
1.2107e-06
4.82303e-07
1.26072e-05
1.66008e-05
5.43284e-07
4.95564e-07
1.22284e-06
4.85542e-07
5.25218e-07
4.82304e-07
1.21068e-06
2.52014e-06
2.52083e-06
4.84193e-07
2.3811e-06
2.38149e-06
1.43235e-06
5.59351e-06
1.32981e-06
6.13314e-06
2.12916e-05
2.31063e-05
1.43283e-06
5.59418e-06
1.32979e-06
6.13378e-06
4.45574e-07
4.45575e-07
4.45575e-07
4.13548e-07
4.13546e-07
4.13547e-07
4.13547e-07
5.87314e-07
1.19311e-06
4.46442e-07
4.44305e-07
5.7397e-07
1.20214e-06
4.35696e-07
2.12939e-05
2.31099e-05
5.87332e-07
4.46442e-07
1.19312e-06
4.44307e-07
5.7397e-07
4.35698e-07
1.20223e-06
2.31491e-06
2.31541e-06
4.53489e-07
2.35742e-06
2.35788e-06
1.66525e-06
6.91864e-06
1.59744e-06
7.31678e-06
2.46452e-05
2.49363e-05
1.66538e-06
6.91945e-06
1.59722e-06
7.31772e-06
4.03762e-07
4.03763e-07
4.03763e-07
3.76681e-07
3.76679e-07
3.76682e-07
3.76681e-07
6.15965e-07
1.23985e-06
4.06563e-07
4.10626e-07
6.08729e-07
1.26245e-06
3.97744e-07
2.46485e-05
2.49397e-05
6.15981e-07
4.06564e-07
1.23995e-06
4.10631e-07
6.08744e-07
3.97747e-07
1.26261e-06
2.47809e-06
2.47856e-06
4.30174e-07
2.5367e-06
2.53718e-06
1.81485e-06
7.848e-06
1.77468e-06
8.09631e-06
2.47451e-05
2.44202e-05
1.81498e-06
7.84896e-06
1.77467e-06
8.09763e-06
3.68369e-07
3.68372e-07
3.68371e-07
3.45178e-07
3.45174e-07
3.45177e-07
3.45176e-07
6.26811e-07
1.3098e-06
3.73497e-07
3.81666e-07
6.25358e-07
1.33041e-06
3.66064e-07
2.47477e-05
2.44235e-05
6.26823e-07
3.73498e-07
1.30989e-06
3.81673e-07
6.25371e-07
3.66067e-07
1.33058e-06
2.63856e-06
2.63905e-06
4.08461e-07
2.68225e-06
2.68275e-06
1.89565e-06
8.39787e-06
1.87576e-06
8.52736e-06
2.37006e-05
2.32535e-05
1.89582e-06
8.399e-06
1.87577e-06
8.52883e-06
3.37978e-07
3.37981e-07
3.37981e-07
3.17973e-07
3.17971e-07
3.17974e-07
3.17973e-07
6.22722e-07
1.36894e-06
3.45228e-07
3.55906e-07
6.26013e-07
1.38416e-06
3.38774e-07
2.37027e-05
2.32563e-05
6.22737e-07
3.4523e-07
1.36902e-06
3.55914e-07
6.26025e-07
3.38777e-07
1.38433e-06
2.76569e-06
2.76621e-06
3.86815e-07
2.80712e-06
2.80767e-06
1.93263e-06
8.66571e-06
1.92444e-06
8.71882e-06
2.25104e-05
2.21067e-05
1.93282e-06
8.66701e-06
1.92447e-06
8.72032e-06
3.11687e-07
3.11691e-07
3.1169e-07
2.93877e-07
2.93871e-07
2.93874e-07
2.93872e-07
6.09517e-07
1.41325e-06
3.20542e-07
3.32662e-07
6.15963e-07
1.42509e-06
3.14755e-07
2.2512e-05
2.21092e-05
6.09533e-07
3.20544e-07
1.41332e-06
3.32671e-07
6.15977e-07
3.14759e-07
1.42525e-06
2.89647e-06
2.89706e-06
3.65472e-07
2.94444e-06
2.94504e-06
1.94806e-06
8.76126e-06
1.94627e-06
8.77494e-06
2.14901e-05
2.11656e-05
1.94825e-06
8.76262e-06
1.94634e-06
8.77637e-06
2.88404e-07
2.88408e-07
2.88407e-07
2.73138e-07
2.73133e-07
2.73138e-07
2.73136e-07
5.92066e-07
1.44998e-06
2.98364e-07
3.11511e-07
5.99889e-07
1.46082e-06
2.93309e-07
2.14916e-05
2.11677e-05
5.92079e-07
2.98367e-07
1.45012e-06
3.11521e-07
5.99902e-07
2.93313e-07
1.46107e-06
3.04843e-06
3.04913e-06
3.44967e-07
3.10492e-06
3.1057e-06
1.95039e-06
8.76464e-06
1.95256e-06
8.74956e-06
2.07135e-05
2.05652e-05
1.95058e-06
8.76605e-06
1.95266e-06
8.75109e-06
2.68044e-07
2.68049e-07
2.68047e-07
2.52569e-07
2.5256e-07
2.52564e-07
2.52562e-07
5.71903e-07
1.4819e-06
2.78612e-07
2.91934e-07
5.81013e-07
1.4828e-06
2.73571e-07
2.07151e-05
2.05673e-05
5.71914e-07
2.78615e-07
1.48209e-06
2.91945e-07
5.81021e-07
2.73575e-07
1.48307e-06
3.21166e-06
3.21256e-06
3.25247e-07
3.25256e-06
3.25353e-06
1.85988e-06
8.73644e-06
1.89836e-06
8.74967e-06
2.04912e-05
2.05081e-05
1.86014e-06
8.73791e-06
1.898e-06
8.75117e-06
2.47878e-07
2.47882e-07
2.47881e-07
2.37797e-07
2.37797e-07
2.37801e-07
2.37798e-07
5.35399e-07
1.47142e-06
2.58442e-07
2.7184e-07
5.51136e-07
1.46534e-06
2.54187e-07
2.04928e-05
2.05093e-05
5.35411e-07
2.58444e-07
1.47143e-06
2.71851e-07
5.51131e-07
2.5419e-07
1.46543e-06
3.29469e-06
3.29573e-06
3.03988e-07
3.31688e-06
3.31792e-06
1.85163e-06
8.78868e-06
1.84851e-06
8.80069e-06
2.05484e-05
2.05649e-05
1.85162e-06
8.78998e-06
1.84833e-06
8.80213e-06
2.35851e-07
2.35855e-07
2.35851e-07
2.3296e-07
2.32956e-07
2.3296e-07
2.32956e-07
5.26081e-07
1.47461e-06
2.45986e-07
2.63287e-07
5.26383e-07
1.48354e-06
2.44671e-07
2.0549e-05
2.05651e-05
5.26088e-07
2.45988e-07
1.47465e-06
2.63298e-07
5.26389e-07
2.44674e-07
1.48359e-06
3.36913e-06
3.37015e-06
2.96732e-07
3.38694e-06
3.38802e-06
1.85969e-06
8.81082e-06
1.859e-06
8.81141e-06
2.05737e-05
2.05765e-05
1.85962e-06
8.81237e-06
1.85891e-06
8.81294e-06
2.32596e-07
2.326e-07
2.32597e-07
2.32242e-07
2.32253e-07
2.32256e-07
2.32254e-07
5.2853e-07
1.49581e-06
2.42962e-07
2.6238e-07
5.28081e-07
1.49683e-06
2.42823e-07
2.05741e-05
2.05768e-05
5.28532e-07
2.42964e-07
1.49578e-06
2.6239e-07
5.28086e-07
2.42825e-07
1.49683e-06
3.40465e-06
3.40573e-06
2.972e-07
3.40637e-06
3.40747e-06
1.86097e-06
8.8122e-06
1.86126e-06
8.81203e-06
2.05772e-05
2.05782e-05
1.86082e-06
8.81366e-06
1.86109e-06
8.81342e-06
2.3226e-07
2.32264e-07
2.32262e-07
2.32248e-07
2.32258e-07
2.32262e-07
2.3226e-07
5.29388e-07
1.49901e-06
2.4275e-07
2.6245e-07
5.29377e-07
1.49834e-06
2.42775e-07
2.0577e-05
2.05782e-05
5.29374e-07
2.42752e-07
1.49898e-06
2.6246e-07
5.29371e-07
2.42776e-07
1.49835e-06
3.40728e-06
3.40836e-06
2.97619e-07
3.40654e-06
3.40763e-06
1.86157e-06
8.81254e-06
1.86205e-06
8.81229e-06
2.05778e-05
2.05786e-05
1.86145e-06
8.81389e-06
1.86185e-06
8.8136e-06
2.32276e-07
2.3228e-07
2.32279e-07
2.32254e-07
2.32268e-07
2.32271e-07
2.3227e-07
5.29728e-07
1.49964e-06
2.42779e-07
2.62516e-07
5.29818e-07
1.49879e-06
2.428e-07
2.05775e-05
2.05785e-05
5.2972e-07
2.42781e-07
1.49961e-06
2.62527e-07
5.29806e-07
2.42802e-07
1.4988e-06
3.40735e-06
3.40843e-06
2.97775e-07
3.40672e-06
3.40781e-06
1.86178e-06
8.8127e-06
1.86239e-06
8.8124e-06
2.0578e-05
2.05788e-05
1.86171e-06
8.81401e-06
1.86225e-06
8.81368e-06
2.32285e-07
2.32289e-07
2.32288e-07
2.32258e-07
2.32273e-07
2.32277e-07
2.32276e-07
5.29894e-07
1.49989e-06
2.42795e-07
2.62555e-07
5.30033e-07
1.49895e-06
2.42807e-07
2.05776e-05
2.05787e-05
5.29896e-07
2.42797e-07
1.49987e-06
2.62567e-07
5.30033e-07
2.4281e-07
1.49897e-06
3.40754e-06
3.40862e-06
2.9785e-07
3.40686e-06
3.40795e-06
1.86181e-06
8.81274e-06
1.86246e-06
8.81242e-06
2.05781e-05
2.05789e-05
1.86174e-06
8.81404e-06
1.86234e-06
8.81369e-06
2.32287e-07
2.32291e-07
2.32288e-07
2.32259e-07
2.32275e-07
2.32279e-07
2.32277e-07
5.29977e-07
1.49996e-06
2.42798e-07
2.62582e-07
5.30148e-07
1.49898e-06
2.42811e-07
2.05777e-05
2.05788e-05
5.29983e-07
2.42801e-07
1.49993e-06
2.62593e-07
5.30152e-07
2.42814e-07
1.499e-06
3.40761e-06
3.40869e-06
2.97873e-07
3.40689e-06
3.40798e-06
1.86181e-06
8.81275e-06
1.86246e-06
8.81243e-06
2.05781e-05
2.05789e-05
1.86175e-06
8.81403e-06
1.86235e-06
8.81368e-06
2.32286e-07
2.32291e-07
2.32288e-07
2.3226e-07
2.32276e-07
2.3228e-07
2.32277e-07
5.29987e-07
1.49996e-06
2.42799e-07
2.6259e-07
5.30176e-07
1.49898e-06
2.42811e-07
2.05778e-05
2.05787e-05
5.29993e-07
2.42802e-07
1.49994e-06
2.62603e-07
5.30183e-07
2.42814e-07
1.499e-06
3.40762e-06
3.40871e-06
2.97875e-07
3.40689e-06
3.40799e-06
1.86181e-06
8.81276e-06
1.86246e-06
8.81244e-06
2.05782e-05
2.05791e-05
1.86175e-06
8.81403e-06
1.86235e-06
8.81368e-06
2.32287e-07
2.32291e-07
2.32288e-07
2.3226e-07
2.32276e-07
2.3228e-07
2.32277e-07
5.29987e-07
1.49996e-06
2.42799e-07
2.6259e-07
5.30176e-07
1.49898e-06
2.42811e-07
2.05778e-05
2.05787e-05
5.29993e-07
2.42802e-07
1.49994e-06
2.62603e-07
5.30182e-07
2.42814e-07
1.499e-06
3.40762e-06
3.40871e-06
2.97875e-07
3.4069e-06
3.40799e-06
1.86181e-06
8.81277e-06
1.86247e-06
8.81245e-06
2.05783e-05
2.05781e-05
1.86175e-06
8.81403e-06
1.86235e-06
8.81368e-06
2.32287e-07
2.32291e-07
2.32288e-07
2.3226e-07
2.32276e-07
2.3228e-07
2.32277e-07
5.29988e-07
1.49996e-06
2.42799e-07
2.6259e-07
5.30176e-07
1.49898e-06
2.42811e-07
2.05778e-05
2.05788e-05
5.29993e-07
2.42802e-07
1.49994e-06
2.62603e-07
5.30182e-07
2.42814e-07
1.499e-06
3.40763e-06
3.40871e-06
2.97875e-07
3.4069e-06
3.40799e-06
1.86181e-06
8.81271e-06
1.86247e-06
8.81241e-06
2.0577e-05
2.05783e-05
1.86175e-06
8.81403e-06
1.86235e-06
8.81368e-06
2.32287e-07
2.32291e-07
2.32288e-07
2.3226e-07
2.32275e-07
2.3228e-07
2.32277e-07
5.29987e-07
1.49997e-06
2.42799e-07
2.6259e-07
5.30176e-07
1.49899e-06
2.42811e-07
2.05777e-05
2.05787e-05
5.29993e-07
2.42802e-07
1.49994e-06
2.62603e-07
5.30182e-07
2.42814e-07
1.499e-06
3.40763e-06
3.40871e-06
2.97875e-07
3.4069e-06
3.40799e-06
1.86181e-06
8.81277e-06
1.86247e-06
8.8125e-06
2.05779e-05
2.05787e-05
1.86174e-06
8.81403e-06
1.86235e-06
8.81367e-06
2.32286e-07
2.32291e-07
2.32288e-07
2.3226e-07
2.32275e-07
2.3228e-07
2.32277e-07
5.29987e-07
1.49997e-06
2.42799e-07
2.6259e-07
5.30176e-07
1.49899e-06
2.42811e-07
2.05777e-05
2.05788e-05
5.29993e-07
2.42802e-07
1.49994e-06
2.62602e-07
5.30182e-07
2.42814e-07
1.499e-06
3.40762e-06
3.40871e-06
2.97875e-07
3.4069e-06
3.40799e-06
1.86181e-06
8.81285e-06
1.86247e-06
8.81252e-06
2.05778e-05
2.05782e-05
1.86174e-06
8.81399e-06
1.86234e-06
8.81376e-06
2.32286e-07
2.32291e-07
2.32288e-07
2.3226e-07
2.32276e-07
2.3228e-07
2.32277e-07
5.29987e-07
1.49997e-06
2.42799e-07
2.62591e-07
5.30176e-07
1.49899e-06
2.42811e-07
2.05778e-05
2.05787e-05
5.29992e-07
2.42802e-07
1.49994e-06
2.62602e-07
5.30181e-07
2.42814e-07
1.499e-06
3.40762e-06
3.40871e-06
2.97875e-07
3.4069e-06
3.40799e-06
1.86181e-06
8.81271e-06
1.86247e-06
8.81229e-06
2.05775e-05
2.05782e-05
1.86174e-06
8.81419e-06
1.86234e-06
8.81393e-06
2.32287e-07
2.32291e-07
2.32288e-07
2.3226e-07
2.32276e-07
2.3228e-07
2.32277e-07
5.29987e-07
1.49997e-06
2.428e-07
2.62591e-07
5.30176e-07
1.49899e-06
2.42814e-07
2.05778e-05
2.05788e-05
5.29992e-07
2.42802e-07
1.49994e-06
2.62603e-07
5.30181e-07
2.42814e-07
1.499e-06
3.40762e-06
3.40871e-06
2.97875e-07
3.40689e-06
3.40799e-06
1.86181e-06
8.81253e-06
1.86247e-06
8.81214e-06
2.05776e-05
2.05782e-05
1.86174e-06
8.81432e-06
1.86235e-06
8.81403e-06
2.32287e-07
2.32291e-07
2.32288e-07
2.3226e-07
2.32276e-07
2.3228e-07
2.32277e-07
5.29987e-07
1.49997e-06
2.42802e-07
2.62592e-07
5.30175e-07
1.49899e-06
2.42813e-07
2.05777e-05
2.05787e-05
5.29992e-07
2.42802e-07
1.49994e-06
2.62603e-07
5.3018e-07
2.42814e-07
1.499e-06
3.40762e-06
3.40871e-06
2.97874e-07
3.4069e-06
3.40799e-06
1.86181e-06
8.81243e-06
1.86247e-06
8.81205e-06
2.05776e-05
2.05783e-05
1.86174e-06
8.8144e-06
1.86235e-06
8.8141e-06
2.32287e-07
2.32291e-07
2.32288e-07
2.32259e-07
2.32276e-07
2.3228e-07
2.32277e-07
5.29987e-07
1.49997e-06
2.428e-07
2.62592e-07
5.30176e-07
1.49899e-06
2.42812e-07
2.05777e-05
2.05787e-05
5.29993e-07
2.42802e-07
1.49994e-06
2.62603e-07
5.30181e-07
2.42814e-07
1.499e-06
3.40762e-06
3.40871e-06
2.97875e-07
3.4069e-06
3.40799e-06
1.86181e-06
8.81237e-06
1.86247e-06
8.812e-06
2.05777e-05
2.05784e-05
1.86174e-06
8.81444e-06
1.86235e-06
8.81413e-06
2.32287e-07
2.32291e-07
2.32288e-07
2.32259e-07
2.32276e-07
2.3228e-07
2.32277e-07
5.29987e-07
1.49997e-06
2.428e-07
2.62592e-07
5.30176e-07
1.49899e-06
2.42813e-07
2.05776e-05
2.05786e-05
5.29993e-07
2.42802e-07
1.49994e-06
2.62603e-07
5.30182e-07
2.42814e-07
1.499e-06
3.40762e-06
3.40871e-06
2.97875e-07
3.4069e-06
3.40799e-06
1.86181e-06
8.81232e-06
1.86247e-06
8.81196e-06
2.05777e-05
2.05784e-05
1.86175e-06
8.81447e-06
1.86235e-06
8.81416e-06
2.32287e-07
2.32291e-07
2.32288e-07
2.32259e-07
2.32276e-07
2.3228e-07
2.32277e-07
5.29987e-07
1.49997e-06
2.42802e-07
2.62592e-07
5.30176e-07
1.49899e-06
2.42814e-07
2.05776e-05
2.05786e-05
5.29994e-07
2.42803e-07
1.49994e-06
2.62603e-07
5.30183e-07
2.42816e-07
1.49901e-06
3.40763e-06
3.40871e-06
2.97875e-07
3.4069e-06
3.40799e-06
1.86181e-06
8.81229e-06
1.86247e-06
8.81193e-06
2.05778e-05
2.05785e-05
1.86174e-06
8.81449e-06
1.86235e-06
8.81417e-06
2.32287e-07
2.32291e-07
2.32288e-07
2.32259e-07
2.32276e-07
2.3228e-07
2.32277e-07
5.29987e-07
1.49997e-06
2.42801e-07
2.62592e-07
5.30176e-07
1.49899e-06
2.42812e-07
2.05778e-05
2.05787e-05
5.29994e-07
2.42803e-07
1.49994e-06
2.62603e-07
5.30183e-07
2.42815e-07
1.49901e-06
3.40763e-06
3.40871e-06
2.97875e-07
3.4069e-06
3.40799e-06
1.86181e-06
8.81227e-06
1.86247e-06
8.81192e-06
2.05778e-05
2.05785e-05
1.86174e-06
8.8145e-06
1.86235e-06
8.81418e-06
2.32287e-07
2.32291e-07
2.32288e-07
2.32259e-07
2.32276e-07
2.3228e-07
2.32277e-07
5.29987e-07
1.49997e-06
2.428e-07
2.62592e-07
5.30176e-07
1.49899e-06
2.42811e-07
2.05778e-05
2.05788e-05
5.29995e-07
2.42803e-07
1.49994e-06
2.62603e-07
5.30183e-07
2.42814e-07
1.499e-06
3.40763e-06
3.40871e-06
2.97876e-07
3.4069e-06
3.40799e-06
1.86181e-06
8.81227e-06
1.86247e-06
8.81192e-06
2.05778e-05
2.05785e-05
1.86175e-06
8.81452e-06
1.86235e-06
8.81419e-06
2.32287e-07
2.32291e-07
2.32288e-07
2.32259e-07
2.32276e-07
2.3228e-07
2.32277e-07
5.29987e-07
1.49997e-06
2.42799e-07
2.62592e-07
5.30176e-07
1.49899e-06
2.42811e-07
2.05777e-05
2.05787e-05
5.29995e-07
2.42802e-07
1.49994e-06
2.62603e-07
5.30183e-07
2.42814e-07
1.499e-06
3.40762e-06
3.40871e-06
2.97876e-07
3.4069e-06
3.40799e-06
1.8619e-06
8.81226e-06
1.86247e-06
8.81193e-06
2.05778e-05
2.05784e-05
1.8619e-06
8.81452e-06
1.86235e-06
8.81421e-06
2.32286e-07
2.32287e-07
2.32284e-07
5.29997e-07
1.49997e-06
2.428e-07
2.62587e-07
5.30175e-07
1.49898e-06
2.42811e-07
2.05776e-05
2.05858e-05
5.30163e-07
2.4281e-07
1.49994e-06
2.62886e-07
5.30184e-07
2.4311e-07
1.49828e-06
3.40763e-06
3.40871e-06
2.98133e-07
3.40497e-06
3.40606e-06
5.35256e-07
5.35992e-07
5.35989e-07
1.09168e-05
5.81344e-07
1.09181e-05
5.81336e-07
5.28206e-07
2.43161e-06
2.43255e-06
5.40836e-07
5.40832e-07
5.34573e-07
5.35517e-07
5.33636e-07
5.35654e-07
5.34573e-07
5.35517e-07
5.33635e-07
5.35654e-07
5.30398e-07
3.47215e-06
5.68202e-07
8.20711e-07
5.30398e-07
3.47218e-06
5.68201e-07
8.2068e-07
5.29521e-07
5.2838e-07
1.17046e-06
5.09602e-07
5.32663e-07
5.28353e-07
5.19188e-07
5.29521e-07
5.2838e-07
1.1706e-06
5.09602e-07
5.32662e-07
5.28353e-07
5.1919e-07
5.35256e-07
5.35991e-07
5.35989e-07
1.0917e-05
5.81322e-07
5.28207e-07
2.43211e-06
2.43223e-06
5.40836e-07
5.40832e-07
1.09177e-05
5.81317e-07
5.34573e-07
5.35517e-07
5.33636e-07
5.35654e-07
5.34573e-07
5.35517e-07
5.35654e-07
5.33636e-07
5.30398e-07
3.47249e-06
5.682e-07
8.20869e-07
5.29521e-07
5.2838e-07
1.17072e-06
5.09602e-07
5.32662e-07
5.28353e-07
5.19196e-07
5.30398e-07
3.47258e-06
5.68198e-07
8.20769e-07
5.29521e-07
5.2838e-07
5.09602e-07
1.17063e-06
5.28353e-07
5.32661e-07
5.19191e-07
5.35663e-07
5.35601e-07
5.35655e-07
5.35655e-07
5.35663e-07
5.35601e-07
5.35655e-07
5.35655e-07
5.35663e-07
5.35601e-07
5.35655e-07
5.35655e-07
5.28435e-07
5.28376e-07
5.09725e-07
5.09725e-07
5.28409e-07
5.28409e-07
5.09782e-07
5.28435e-07
5.28376e-07
5.09725e-07
5.09725e-07
5.28409e-07
5.28409e-07
5.09782e-07
5.28435e-07
5.28376e-07
5.09725e-07
5.09725e-07
5.28409e-07
5.28409e-07
5.09782e-07
5.28435e-07
5.28376e-07
5.09725e-07
5.09725e-07
5.28409e-07
5.28409e-07
5.09782e-07
5.34573e-07
5.35517e-07
5.35654e-07
5.33636e-07
5.29521e-07
5.2838e-07
1.17067e-06
5.09603e-07
5.32661e-07
5.28353e-07
5.19194e-07
5.30398e-07
3.47239e-06
5.68194e-07
8.20768e-07
5.29521e-07
5.2838e-07
5.09602e-07
1.17054e-06
5.28353e-07
5.32661e-07
5.1919e-07
5.30398e-07
3.47252e-06
5.68198e-07
8.20712e-07
5.35256e-07
5.35989e-07
5.35988e-07
1.09182e-05
5.81333e-07
5.28206e-07
2.43239e-06
2.43223e-06
5.40832e-07
5.40829e-07
1.09181e-05
5.81312e-07
5.34573e-07
5.35517e-07
5.35654e-07
5.33636e-07
5.29521e-07
5.2838e-07
5.09603e-07
1.1706e-06
5.28353e-07
5.3266e-07
5.19194e-07
5.29521e-07
5.2838e-07
5.09602e-07
1.17072e-06
5.28353e-07
5.32662e-07
5.19196e-07
5.30398e-07
3.47254e-06
5.68192e-07
8.20848e-07
5.30398e-07
3.47255e-06
5.68203e-07
8.20936e-07
5.28206e-07
2.43203e-06
2.43268e-06
5.4083e-07
5.40831e-07
1.0918e-05
5.81316e-07
1.09182e-05
5.8133e-07
1.26054e-05
1.65974e-05
1.2607e-05
1.66001e-05
2.5201e-06
2.52083e-06
4.84192e-07
2.38074e-06
2.38149e-06
2.05267e-05
1.76947e-05
2.05302e-05
1.76977e-05
4.7931e-07
2.30851e-06
2.30916e-06
2.34298e-06
2.34373e-06
1.10862e-06
3.88061e-06
9.32743e-07
4.60383e-06
5.43244e-07
1.22274e-06
4.95564e-07
4.85543e-07
5.25257e-07
1.21062e-06
4.82303e-07
5.43242e-07
1.22292e-06
4.95564e-07
4.8555e-07
5.25263e-07
1.21086e-06
4.82303e-07
1.16216e-06
5.40513e-06
4.81032e-06
1.28144e-06
1.16227e-06
5.40512e-06
4.81037e-06
1.28146e-06
5.5112e-07
4.74326e-07
1.19175e-06
4.57773e-07
1.20555e-06
4.69716e-07
5.66602e-07
5.51122e-07
4.74334e-07
1.19193e-06
4.57773e-07
1.20571e-06
4.69716e-07
5.66599e-07
2.52057e-06
2.52031e-06
4.84191e-07
2.38135e-06
2.38087e-06
1.26062e-05
1.65985e-05
2.05279e-05
1.76965e-05
4.7931e-07
2.30902e-06
2.30873e-06
2.34349e-06
2.34333e-06
2.05279e-05
1.76956e-05
5.43283e-07
1.22301e-06
4.95564e-07
4.85548e-07
5.25253e-07
1.2109e-06
4.82303e-07
1.10886e-06
3.88114e-06
9.32497e-07
4.60462e-06
5.43277e-07
4.95564e-07
1.22297e-06
4.85551e-07
5.25244e-07
4.82303e-07
1.21089e-06
1.16215e-06
5.4056e-06
4.81066e-06
1.28166e-06
5.51116e-07
4.74332e-07
1.19194e-06
4.57774e-07
1.20573e-06
4.69715e-07
5.66627e-07
1.16214e-06
5.40611e-06
4.81112e-06
1.28165e-06
5.51118e-07
4.74336e-07
4.57774e-07
1.192e-06
4.69717e-07
1.20578e-06
5.6663e-07
1.10878e-06
3.88061e-06
9.32596e-07
4.60413e-06
5.43258e-07
4.95564e-07
1.22283e-06
4.85543e-07
5.25231e-07
4.82303e-07
1.21075e-06
1.10879e-06
3.88111e-06
9.32433e-07
4.60429e-06
5.51116e-07
4.74323e-07
1.19175e-06
4.57773e-07
1.20555e-06
4.69715e-07
5.66608e-07
1.1622e-06
5.40522e-06
4.81009e-06
1.28155e-06
5.51115e-07
4.74328e-07
4.57774e-07
1.19181e-06
4.69716e-07
1.20553e-06
5.66605e-07
1.16211e-06
5.40556e-06
4.81094e-06
1.28152e-06
2.52076e-06
2.52025e-06
4.84194e-07
2.38148e-06
2.38074e-06
1.2607e-05
1.6599e-05
2.05312e-05
1.76981e-05
4.79311e-07
2.30922e-06
2.30868e-06
2.34366e-06
2.34318e-06
2.05288e-05
1.76973e-05
5.43293e-07
4.95564e-07
1.22301e-06
4.85548e-07
5.25231e-07
4.82303e-07
1.21089e-06
1.10907e-06
3.88107e-06
9.32358e-07
4.60438e-06
1.10913e-06
3.88096e-06
9.32476e-07
4.60427e-06
5.5111e-07
4.74324e-07
4.57775e-07
1.1918e-06
4.69715e-07
1.20561e-06
5.66628e-07
5.51109e-07
4.74332e-07
4.57774e-07
1.19193e-06
4.69716e-07
1.2057e-06
5.66635e-07
1.16192e-06
5.40581e-06
4.81092e-06
1.28168e-06
1.16194e-06
5.40578e-06
4.81066e-06
1.28171e-06
1.26065e-05
1.65989e-05
1.26071e-05
1.65997e-05
4.79311e-07
2.30863e-06
2.30913e-06
2.34288e-06
2.34368e-06
2.05281e-05
1.76967e-05
2.05298e-05
1.7698e-05
2.12896e-05
2.31048e-05
2.12934e-05
2.31088e-05
2.31477e-06
2.31545e-06
4.53485e-07
2.35715e-06
2.35775e-06
2.4468e-05
2.35398e-05
2.44716e-05
2.35434e-05
4.50892e-07
2.44681e-06
2.4474e-06
2.38528e-06
2.38587e-06
1.43235e-06
5.59361e-06
1.32979e-06
6.13331e-06
5.87313e-07
1.1931e-06
4.46443e-07
4.4431e-07
5.73973e-07
1.20216e-06
4.35696e-07
5.87309e-07
1.19325e-06
4.46444e-07
4.44318e-07
5.73969e-07
1.20234e-06
4.35696e-07
1.47593e-06
6.77483e-06
6.30136e-06
1.55957e-06
1.47589e-06
6.77497e-06
6.30142e-06
1.55955e-06
5.93592e-07
4.35325e-07
1.22857e-06
4.158e-07
1.20998e-06
4.25493e-07
6.0395e-07
5.93583e-07
4.35334e-07
1.22869e-06
4.15801e-07
1.21013e-06
4.25494e-07
6.03946e-07
2.31522e-06
2.31495e-06
4.53481e-07
2.35758e-06
2.35726e-06
2.12904e-05
2.31058e-05
2.4469e-05
2.35417e-05
4.5089e-07
2.44724e-06
2.44673e-06
2.38569e-06
2.38565e-06
2.44687e-05
2.35407e-05
5.87331e-07
1.1933e-06
4.46443e-07
4.44313e-07
5.73978e-07
1.20234e-06
4.35697e-07
1.43283e-06
5.59455e-06
1.32981e-06
6.13449e-06
5.87333e-07
4.46445e-07
1.19332e-06
4.44322e-07
5.73985e-07
4.35698e-07
1.20241e-06
1.47557e-06
6.7755e-06
6.30214e-06
1.55995e-06
5.93604e-07
4.35328e-07
1.22869e-06
4.15802e-07
1.21014e-06
4.25493e-07
6.03964e-07
1.47558e-06
6.77627e-06
6.30254e-06
1.55997e-06
5.93611e-07
4.35338e-07
4.15803e-07
1.22876e-06
4.25496e-07
1.21027e-06
6.03973e-07
1.43253e-06
5.59351e-06
1.32976e-06
6.13333e-06
5.87319e-07
4.46443e-07
1.19314e-06
4.44312e-07
5.73974e-07
4.35697e-07
1.20227e-06
1.4324e-06
5.59417e-06
1.32987e-06
6.13382e-06
5.93587e-07
4.35317e-07
1.22849e-06