/*--------------------------------*- C++ -*----------------------------------*\
| =========                 |                                                 |
| \\      /  F ield         | OpenFOAM: The Open Source CFD Toolbox           |
|  \\    /   O peration     | Version:  v1912                                 |
|   \\  /    A nd           | Website:  www.openfoam.com                      |
|    \\/     M anipulation  |                                                 |
\*---------------------------------------------------------------------------*/
FoamFile
{
    version     2.0;
    format      ascii;
    class       volScalarField;
    location    "120";
    object      epsilon;
}
// * * * * * * * * * * * * * * * * * * * * * * * * * * * * * * * * * * * * * //

dimensions      [0 2 -3 0 0 0 0];


internalField   nonuniform List<scalar> 
57100
(
4.95565e-07
4.97334e-07
4.97334e-07
4.9957e-07
4.45573e-07
4.5375e-07
4.53752e-07
4.63724e-07
4.03752e-07
4.18522e-07
4.18526e-07
4.39419e-07
3.68364e-07
3.88551e-07
3.88557e-07
4.17659e-07
3.38014e-07
3.62095e-07
3.62102e-07
3.96065e-07
3.11645e-07
3.38261e-07
3.3827e-07
3.74559e-07
2.8847e-07
3.16626e-07
3.16635e-07
3.53685e-07
2.6792e-07
2.97014e-07
2.97023e-07
3.34123e-07
2.49577e-07
2.79369e-07
2.79378e-07
3.16465e-07
2.33135e-07
2.63687e-07
2.63696e-07
3.01148e-07
2.18365e-07
2.49972e-07
2.49981e-07
2.88488e-07
2.05092e-07
2.38227e-07
2.38237e-07
2.78699e-07
1.93176e-07
2.28451e-07
2.28461e-07
2.7189e-07
1.82504e-07
2.20652e-07
2.20664e-07
2.68187e-07
1.72989e-07
2.14839e-07
2.14853e-07
2.67677e-07
1.64554e-07
2.11022e-07
2.11039e-07
2.70533e-07
1.57138e-07
2.09207e-07
2.09227e-07
2.76741e-07
1.5069e-07
2.09412e-07
2.09436e-07
2.86326e-07
1.45162e-07
2.11683e-07
2.11711e-07
2.99267e-07
1.40523e-07
2.16032e-07
2.16063e-07
3.15628e-07
1.36735e-07
2.22476e-07
2.22511e-07
3.35347e-07
1.33784e-07
2.31028e-07
2.31065e-07
3.58294e-07
1.31617e-07
2.41599e-07
2.4164e-07
3.84156e-07
1.30211e-07
2.53951e-07
2.53995e-07
4.12187e-07
1.29335e-07
2.67288e-07
2.67335e-07
4.40687e-07
1.28762e-07
2.80097e-07
2.80149e-07
4.66036e-07
1.27851e-07
2.89471e-07
2.89524e-07
4.83244e-07
1.25666e-07
2.92933e-07
2.92998e-07
4.90241e-07
1.23114e-07
2.93053e-07
2.93127e-07
4.91524e-07
1.21616e-07
2.93064e-07
2.93171e-07
4.9139e-07
5.06418e-07
5.05584e-07
5.05583e-07
5.06417e-07
5.05583e-07
5.05583e-07
5.09648e-07
5.09648e-07
5.09648e-07
5.09648e-07
5.05585e-07
5.05584e-07
5.06418e-07
5.05585e-07
5.05583e-07
5.06418e-07
4.9957e-07
4.67246e-07
4.97335e-07
4.97339e-07
4.63735e-07
4.63743e-07
4.9957e-07
4.67243e-07
4.97339e-07
4.9734e-07
4.63739e-07
4.63745e-07
4.97336e-07
4.63731e-07
4.63736e-07
4.9957e-07
4.67249e-07
4.97338e-07
4.63732e-07
4.6374e-07
4.67248e-07
4.63724e-07
4.41421e-07
4.53755e-07
4.53763e-07
4.2675e-07
4.26758e-07
4.63722e-07
4.41415e-07
4.53759e-07
4.53767e-07
4.26751e-07
4.26763e-07
4.53757e-07
4.26741e-07
4.26752e-07
4.63726e-07
4.41426e-07
4.53759e-07
4.26746e-07
4.26753e-07
4.41424e-07
4.39415e-07
4.19274e-07
4.18531e-07
4.18539e-07
3.95678e-07
3.95684e-07
4.39413e-07
4.19266e-07
4.18531e-07
4.18544e-07
3.95674e-07
3.95691e-07
4.18534e-07
3.95665e-07
3.95681e-07
4.39422e-07
4.1928e-07
4.18532e-07
3.95671e-07
3.95675e-07
4.19278e-07
4.17654e-07
3.97627e-07
3.88565e-07
3.88571e-07
3.68455e-07
3.6846e-07
4.17648e-07
3.97618e-07
3.8856e-07
3.88578e-07
3.68446e-07
3.68467e-07
3.88569e-07
3.68438e-07
3.68458e-07
4.1766e-07
3.97633e-07
3.88561e-07
3.68446e-07
3.68447e-07
3.97632e-07
3.9606e-07
3.76061e-07
3.62112e-07
3.62117e-07
3.44022e-07
3.44025e-07
3.96053e-07
3.76051e-07
3.62102e-07
3.62124e-07
3.44009e-07
3.44033e-07
3.62115e-07
3.44002e-07
3.44025e-07
3.96067e-07
3.76067e-07
3.62103e-07
3.44011e-07
3.4401e-07
3.76066e-07
3.74553e-07
3.55084e-07
3.38281e-07
3.38284e-07
3.21863e-07
3.21865e-07
3.74546e-07
3.55073e-07
3.38267e-07
3.38292e-07
3.21847e-07
3.21873e-07
3.38284e-07
3.21842e-07
3.21866e-07
3.7456e-07
3.55089e-07
3.38269e-07
3.2185e-07
3.21848e-07
3.55089e-07
3.53679e-07
3.35368e-07
3.16648e-07
3.1665e-07
3.01755e-07
3.01756e-07
3.53671e-07
3.35358e-07
3.16631e-07
3.16658e-07
3.01736e-07
3.01763e-07
3.16651e-07
3.01732e-07
3.01757e-07
3.53686e-07
3.35374e-07
3.16633e-07
3.01741e-07
3.01737e-07
3.35373e-07
3.34118e-07
3.1751e-07
2.97037e-07
2.97038e-07
2.83621e-07
2.83622e-07
3.3411e-07
3.17501e-07
2.97018e-07
2.97045e-07
2.83601e-07
2.83629e-07
2.97039e-07
2.83597e-07
2.83623e-07
3.34124e-07
3.17517e-07
2.97019e-07
2.83606e-07
2.83602e-07
3.17516e-07
3.16459e-07
3.01958e-07
2.79393e-07
2.79394e-07
2.67448e-07
2.67449e-07
3.16451e-07
3.01948e-07
2.79373e-07
2.79401e-07
2.67426e-07
2.67455e-07
2.79395e-07
2.67423e-07
2.67449e-07
3.16465e-07
3.01965e-07
2.79374e-07
2.67432e-07
2.67427e-07
3.01964e-07
3.01142e-07
2.89031e-07
2.63712e-07
2.63712e-07
2.53243e-07
2.53243e-07
3.01134e-07
2.8902e-07
2.6369e-07
2.63719e-07
2.5322e-07
2.5325e-07
2.63713e-07
2.53216e-07
2.53243e-07
3.01149e-07
2.89039e-07
2.63691e-07
2.53225e-07
2.5322e-07
2.89038e-07
2.88481e-07
2.78949e-07
2.49999e-07
2.49999e-07
2.41007e-07
2.41007e-07
2.88472e-07
2.78937e-07
2.49976e-07
2.50006e-07
2.40983e-07
2.41014e-07
2.5e-07
2.40978e-07
2.41006e-07
2.88488e-07
2.78957e-07
2.49976e-07
2.40988e-07
2.40983e-07
2.78956e-07
2.78692e-07
2.71839e-07
2.38255e-07
2.38256e-07
2.3074e-07
2.30741e-07
2.78682e-07
2.71827e-07
2.38231e-07
2.38264e-07
2.30715e-07
2.30748e-07
2.38256e-07
2.30708e-07
2.30739e-07
2.787e-07
2.71848e-07
2.38232e-07
2.30719e-07
2.30714e-07
2.71846e-07
2.71882e-07
2.67882e-07
2.28481e-07
2.28484e-07
2.22449e-07
2.22451e-07
2.71872e-07
2.67869e-07
2.28457e-07
2.28491e-07
2.22423e-07
2.22459e-07
2.28482e-07
2.22414e-07
2.22448e-07
2.71891e-07
2.67892e-07
2.28457e-07
2.22426e-07
2.22422e-07
2.67891e-07
2.68176e-07
2.67009e-07
2.20685e-07
2.2069e-07
2.16141e-07
2.16146e-07
2.68166e-07
2.66995e-07
2.2066e-07
2.20698e-07
2.16114e-07
2.16154e-07
2.20686e-07
2.16102e-07
2.16139e-07
2.68187e-07
2.67021e-07
2.2066e-07
2.16116e-07
2.16112e-07
2.6702e-07
2.67667e-07
2.6919e-07
2.14876e-07
2.14883e-07
2.11829e-07
2.11837e-07
2.67653e-07
2.69173e-07
2.14851e-07
2.14892e-07
2.11802e-07
2.11846e-07
2.14876e-07
2.11784e-07
2.11825e-07
2.67678e-07
2.69204e-07
2.14848e-07
2.11801e-07
2.11797e-07
2.69201e-07
2.70524e-07
2.74704e-07
2.11067e-07
2.11075e-07
2.09516e-07
2.09525e-07
2.70506e-07
2.74682e-07
2.1104e-07
2.11085e-07
2.09489e-07
2.09538e-07
2.11063e-07
2.09464e-07
2.0951e-07
2.70535e-07
2.74719e-07
2.11035e-07
2.09484e-07
2.09481e-07
2.74715e-07
2.76731e-07
2.83588e-07
2.0926e-07
2.09269e-07
2.09243e-07
2.09252e-07
2.76709e-07
2.83563e-07
2.09232e-07
2.09281e-07
2.09215e-07
2.09268e-07
2.09253e-07
2.09185e-07
2.09235e-07
2.76744e-07
2.83606e-07
2.09225e-07
2.09208e-07
2.09206e-07
2.83601e-07
2.86317e-07
2.95849e-07
2.09472e-07
2.09481e-07
2.10982e-07
2.10988e-07
2.86289e-07
2.95818e-07
2.09444e-07
2.09499e-07
2.10953e-07
2.11012e-07
2.09464e-07
2.10914e-07
2.10971e-07
2.8633e-07
2.95868e-07
2.09434e-07
2.1094e-07
2.10941e-07
2.95862e-07
2.99256e-07
3.11519e-07
2.1175e-07
2.1176e-07
2.14817e-07
2.14827e-07
2.99223e-07
3.11485e-07
2.11722e-07
2.11783e-07
2.14786e-07
2.14852e-07
2.11741e-07
2.1474e-07
2.14804e-07
2.99272e-07
3.11542e-07
2.1171e-07
2.1477e-07
2.14773e-07
3.11535e-07
3.15613e-07
3.30552e-07
2.16107e-07
2.16121e-07
2.20743e-07
2.20765e-07
3.15579e-07
3.30514e-07
2.16078e-07
2.16146e-07
2.20714e-07
2.2079e-07
2.16096e-07
2.20663e-07
2.20735e-07
3.15634e-07
3.30579e-07
2.16064e-07
2.20696e-07
2.20702e-07
3.30571e-07
3.35328e-07
3.52833e-07
2.22553e-07
2.22578e-07
2.28775e-07
2.28809e-07
3.35291e-07
3.52792e-07
2.22525e-07
2.22603e-07
2.28748e-07
2.28835e-07
2.22546e-07
2.28692e-07
2.28772e-07
3.35353e-07
3.52866e-07
2.22513e-07
2.28729e-07
2.28738e-07
3.52857e-07
3.58272e-07
3.78093e-07
2.31107e-07
2.31143e-07
2.38852e-07
2.38895e-07
3.58233e-07
3.7805e-07
2.31079e-07
2.31169e-07
2.38824e-07
2.38923e-07
2.31104e-07
2.38764e-07
2.38852e-07
3.58301e-07
3.78131e-07
2.31069e-07
2.38803e-07
2.38816e-07
3.78123e-07
3.8413e-07
4.05705e-07
2.41681e-07
2.41726e-07
2.50819e-07
2.5087e-07
3.84088e-07
4.05659e-07
2.41653e-07
2.41754e-07
2.5079e-07
2.50899e-07
2.41681e-07
2.50724e-07
2.50821e-07
3.84162e-07
4.05747e-07
2.41644e-07
2.50767e-07
2.50783e-07
4.05742e-07
4.12153e-07
4.34137e-07
2.54039e-07
2.54091e-07
2.64013e-07
2.64071e-07
4.12109e-07
4.3409e-07
2.54008e-07
2.5412e-07
2.63982e-07
2.64101e-07
2.54041e-07
2.63911e-07
2.64018e-07
4.12189e-07
4.34181e-07
2.54004e-07
2.63956e-07
2.63982e-07
4.34183e-07
4.40643e-07
4.60331e-07
2.6738e-07
2.67438e-07
2.77177e-07
2.77239e-07
4.40596e-07
4.6028e-07
2.67346e-07
2.67467e-07
2.7714e-07
2.77268e-07
2.67385e-07
2.77067e-07
2.77183e-07
4.4068e-07
4.60388e-07
2.67349e-07
2.77118e-07
2.77146e-07
4.60387e-07
4.65969e-07
4.79232e-07
2.80193e-07
2.80254e-07
2.87746e-07
2.87808e-07
4.65921e-07
4.79187e-07
2.80154e-07
2.80285e-07
2.87703e-07
2.87848e-07
2.80199e-07
2.87641e-07
2.87754e-07
4.66023e-07
4.79301e-07
2.80161e-07
2.87692e-07
2.87711e-07
4.79288e-07
4.83157e-07
4.87964e-07
2.89569e-07
2.89629e-07
2.92678e-07
2.92742e-07
4.83114e-07
4.87912e-07
2.89524e-07
2.8967e-07
2.92638e-07
2.92773e-07
2.89578e-07
2.92559e-07
2.92693e-07
4.83222e-07
4.88026e-07
2.89533e-07
2.92621e-07
2.92647e-07
4.88023e-07
4.90127e-07
4.89824e-07
2.93043e-07
2.93108e-07
2.93216e-07
2.93284e-07
4.90075e-07
4.89763e-07
2.93005e-07
2.93136e-07
2.93181e-07
2.93307e-07
2.93061e-07
2.93095e-07
2.93238e-07
4.9018e-07
4.89871e-07
2.93016e-07
2.93166e-07
2.93195e-07
4.89871e-07
4.9144e-07
4.89673e-07
2.93165e-07
2.93235e-07
2.93168e-07
2.93241e-07
4.9138e-07
4.89606e-07
2.93131e-07
2.93256e-07
2.93134e-07
2.93259e-07
2.93189e-07
2.93043e-07
2.93193e-07
4.9148e-07
4.89722e-07
2.93148e-07
2.9312e-07
2.93154e-07
4.89736e-07
4.91292e-07
2.93179e-07
2.93253e-07
4.91231e-07
2.93147e-07
2.93287e-07
2.93221e-07
4.91338e-07
2.93183e-07
5.35663e-07
5.35601e-07
5.35655e-07
5.35655e-07
5.34573e-07
5.35516e-07
5.33635e-07
5.35654e-07
5.34573e-07
5.35516e-07
5.35654e-07
5.33635e-07
5.35254e-07
5.35988e-07
5.35988e-07
1.10844e-06
3.8795e-06
9.32857e-07
4.6053e-06
1.26056e-05
1.66035e-05
1.10857e-06
3.87974e-06
9.32888e-07
4.60566e-06
4.95565e-07
4.95565e-07
4.95565e-07
4.57233e-07
4.57233e-07
4.57233e-07
4.57233e-07
5.43211e-07
1.22286e-06
4.95564e-07
4.85541e-07
5.25284e-07
1.21059e-06
4.82303e-07
1.26072e-05
1.66061e-05
5.43229e-07
4.95564e-07
1.22284e-06
4.85542e-07
5.25263e-07
4.82304e-07
1.2106e-06
2.52022e-06
2.52091e-06
4.84192e-07
2.38081e-06
2.3812e-06
1.43194e-06
5.592e-06
1.3302e-06
6.13496e-06
2.12858e-05
2.31111e-05
1.43234e-06
5.59266e-06
1.33025e-06
6.13561e-06
4.45573e-07
4.45574e-07
4.45574e-07
4.13543e-07
4.13542e-07
4.13544e-07
4.13543e-07
5.87312e-07
1.19312e-06
4.46441e-07
4.44305e-07
5.73985e-07
1.2021e-06
4.35698e-07
2.1288e-05
2.31148e-05
5.8733e-07
4.46442e-07
1.19314e-06
4.44308e-07
5.73994e-07
4.35699e-07
1.20219e-06
2.31503e-06
2.31554e-06
4.53487e-07
2.35742e-06
2.35788e-06
1.66526e-06
6.91679e-06
1.59762e-06
7.31902e-06
2.46414e-05
2.49375e-05
1.66536e-06
6.9176e-06
1.59753e-06
7.31996e-06
4.03752e-07
4.03754e-07
4.03753e-07
3.7669e-07
3.76689e-07
3.76692e-07
3.76691e-07
6.15966e-07
1.23989e-06
4.06557e-07
4.10624e-07
6.08735e-07
1.26242e-06
3.97741e-07
2.46445e-05
2.4941e-05
6.15982e-07
4.06558e-07
1.23998e-06
4.10628e-07
6.08751e-07
3.97744e-07
1.26258e-06
2.47825e-06
2.47873e-06
4.30172e-07
2.53668e-06
2.53716e-06
1.81485e-06
7.84569e-06
1.77472e-06
8.09893e-06
2.47365e-05
2.44295e-05
1.81499e-06
7.84665e-06
1.77471e-06
8.10023e-06
3.68363e-07
3.68365e-07
3.68365e-07
3.45192e-07
3.45192e-07
3.45195e-07
3.45194e-07
6.26811e-07
1.30981e-06
3.73494e-07
3.81653e-07
6.25366e-07
1.33037e-06
3.66045e-07
2.47389e-05
2.44331e-05
6.26824e-07
3.73495e-07
1.3099e-06
3.8166e-07
6.25378e-07
3.66049e-07
1.33054e-06
2.63858e-06
2.63907e-06
4.08457e-07
2.68221e-06
2.68272e-06
1.89553e-06
8.39562e-06
1.87585e-06
8.52982e-06
2.36912e-05
2.32631e-05
1.8957e-06
8.39677e-06
1.87587e-06
8.53127e-06
3.38014e-07
3.38017e-07
3.38016e-07
3.17911e-07
3.1791e-07
3.17914e-07
3.17912e-07
6.22693e-07
1.36897e-06
3.45259e-07
3.55913e-07
6.2601e-07
1.38407e-06
3.38785e-07
2.36929e-05
2.32663e-05
6.22707e-07
3.45261e-07
1.36904e-06
3.55921e-07
6.26022e-07
3.38789e-07
1.38424e-06
2.76563e-06
2.76616e-06
3.86816e-07
2.80704e-06
2.80758e-06
1.93258e-06
8.66394e-06
1.9245e-06
8.71999e-06
2.24996e-05
2.21174e-05
1.93275e-06
8.66529e-06
1.92453e-06
8.72141e-06
3.11644e-07
3.11647e-07
3.11646e-07
2.93999e-07
2.93998e-07
2.94002e-07
2.94e-07
6.09493e-07
1.41333e-06
3.20515e-07
3.32656e-07
6.15982e-07
1.42497e-06
3.1477e-07
2.25008e-05
2.21203e-05
6.09507e-07
3.20517e-07
1.41341e-06
3.32665e-07
6.15994e-07
3.14773e-07
1.42514e-06
2.89627e-06
2.89686e-06
3.65462e-07
2.9445e-06
2.94512e-06
1.95058e-06
8.76112e-06
1.94632e-06
8.77287e-06
2.14747e-05
2.11753e-05
1.95076e-06
8.76256e-06
1.94636e-06
8.77428e-06
2.88469e-07
2.88473e-07
2.88472e-07
2.72836e-07
2.72836e-07
2.72839e-07
2.72838e-07
5.92471e-07
1.45052e-06
2.98436e-07
3.11537e-07
5.9998e-07
1.46194e-06
2.9327e-07
2.14758e-05
2.11779e-05
5.92486e-07
2.98438e-07
1.45059e-06
3.11546e-07
5.99993e-07
2.93273e-07
1.4621e-06
3.04945e-06
3.05013e-06
3.45033e-07
3.10656e-06
3.10733e-06
1.96821e-06
8.77121e-06
1.96223e-06
8.76622e-06
2.06713e-05
2.04498e-05
1.96838e-06
8.77264e-06
1.96227e-06
8.76764e-06
2.67919e-07
2.67923e-07
2.67921e-07
2.53974e-07
2.53973e-07
2.53977e-07
2.53975e-07
5.76054e-07
1.48989e-06
2.78529e-07
2.92419e-07
5.82882e-07
1.50382e-06
2.73855e-07
2.06725e-05
2.04519e-05
5.7607e-07
2.7853e-07
1.48996e-06
2.92428e-07
5.82897e-07
2.73858e-07
1.50398e-06
3.22609e-06
3.22689e-06
3.2618e-07
3.29162e-06
3.29258e-06
1.99804e-06
8.75249e-06
1.9869e-06
8.74648e-06
2.0069e-05
1.99077e-05
1.99819e-06
8.75396e-06
1.98692e-06
8.74795e-06
2.49576e-07
2.4958e-07
2.49578e-07
2.37081e-07
2.3708e-07
2.37084e-07
2.37082e-07
5.63505e-07
1.53841e-06
2.60505e-07
2.75265e-07
5.68436e-07
1.55638e-06
2.56271e-07
2.00708e-05
1.99095e-05
5.63521e-07
2.60506e-07
1.53848e-06
2.75274e-07
5.68452e-07
2.56275e-07
1.55654e-06
3.42124e-06
3.42219e-06
3.09429e-07
3.49239e-06
3.49355e-06
2.04763e-06
8.73708e-06
2.02919e-06
8.73496e-06
1.96295e-05
1.95138e-05
2.04778e-06
8.73858e-06
2.02921e-06
8.7365e-06
2.33134e-07
2.33138e-07
2.33136e-07
2.21911e-07
2.2191e-07
2.21914e-07
2.21913e-07
5.57114e-07
1.59987e-06
2.44191e-07
2.60073e-07
5.59252e-07
1.62258e-06
2.40365e-07
1.96313e-05
1.95156e-05
5.57133e-07
2.44192e-07
1.59994e-06
2.60082e-07
5.5927e-07
2.40369e-07
1.62275e-06
3.62711e-06
3.62822e-06
2.95156e-07
3.70088e-06
3.70224e-06
2.12135e-06
8.73457e-06
2.09438e-06
8.73733e-06
1.93152e-05
1.92341e-05
2.12151e-06
8.7362e-06
2.09436e-06
8.73899e-06
2.18364e-07
2.18369e-07
2.18367e-07
2.08278e-07
2.08277e-07
2.08281e-07
2.08279e-07
5.58246e-07
1.67555e-06
2.29474e-07
2.46851e-07
5.57371e-07
1.70293e-06
2.26034e-07
1.9317e-05
1.92359e-05
5.58264e-07
2.29475e-07
1.67563e-06
2.4686e-07
5.57387e-07
2.26038e-07
1.70311e-06
3.83543e-06
3.8367e-06
2.83633e-07
3.9089e-06
3.91046e-06
2.22105e-06
8.74394e-06
2.18515e-06
8.75087e-06
1.90946e-05
1.90387e-05
2.22124e-06
8.74569e-06
2.18519e-06
8.75261e-06
2.05091e-07
2.05095e-07
2.05093e-07
1.96034e-07
1.96033e-07
1.96037e-07
1.96035e-07
5.67629e-07
1.7647e-06
2.16277e-07
2.35597e-07
5.63771e-07
1.79618e-06
2.13207e-07
1.90964e-05
1.90405e-05
5.67654e-07
2.16277e-07
1.7648e-06
2.35607e-07
5.63794e-07
2.13211e-07
1.79637e-06
4.03843e-06
4.03985e-06
2.75013e-07
4.10906e-06
4.11081e-06
2.34614e-06
8.76167e-06
2.30177e-06
8.77044e-06
1.89412e-05
1.89029e-05
2.34672e-06
8.76349e-06
2.30171e-06
8.77225e-06
1.93175e-07
1.93179e-07
1.93177e-07
1.85061e-07
1.85059e-07
1.85064e-07
1.85062e-07
5.86616e-07
1.86524e-06
2.04538e-07
2.26314e-07
5.79477e-07
1.89992e-06
2.01824e-07
1.8943e-05
1.89046e-05
5.86643e-07
2.04538e-07
1.86534e-06
2.26325e-07
5.79507e-07
2.01828e-07
1.90012e-06
4.22957e-06
4.23113e-06
2.69484e-07
4.29513e-06
4.29701e-06
2.49436e-06
8.78245e-06
2.44127e-06
8.79132e-06
1.88339e-05
1.88071e-05
2.49492e-06
8.78432e-06
2.44101e-06
8.79318e-06
1.82504e-07
1.82508e-07
1.82506e-07
1.75263e-07
1.75262e-07
1.75267e-07
1.75264e-07
6.15725e-07
1.97429e-06
1.94206e-07
2.1901e-07
6.05178e-07
2.01111e-06
1.91837e-07
1.88357e-05
1.88088e-05
6.1576e-07
1.94206e-07
1.97441e-06
2.19022e-07
6.05214e-07
1.91841e-07
2.01132e-06
4.4038e-06
4.40548e-06
2.67079e-07
4.46265e-06
4.46464e-06
2.65927e-06
8.80284e-06
2.5996e-06
8.81106e-06
1.87565e-05
1.87368e-05
2.65983e-06
8.80475e-06
2.59934e-06
8.81294e-06
1.72988e-07
1.72992e-07
1.7299e-07
1.66565e-07
1.66563e-07
1.66568e-07
1.66566e-07
6.5524e-07
2.08852e-06
1.85238e-07
2.13694e-07
6.41224e-07
2.12631e-06
1.83203e-07
1.87582e-05
1.87385e-05
6.55277e-07
1.85237e-07
2.08865e-06
2.13709e-07
6.41261e-07
1.83208e-07
2.12652e-06
4.55797e-06
4.55973e-06
2.677e-07
4.6093e-06
4.61136e-06
2.83378e-06
8.82154e-06
2.77047e-06
8.829e-06
1.86973e-05
1.86818e-05
2.83434e-06
8.82347e-06
2.77023e-06
8.83089e-06
1.64553e-07
1.64558e-07
1.64555e-07
1.58899e-07
1.58898e-07
1.58903e-07
1.589e-07
7.05102e-07
2.20448e-06
1.77597e-07
2.10373e-07
6.87688e-07
2.24213e-06
1.7589e-07
1.86988e-05
1.86834e-05
7.05141e-07
1.77597e-07
2.2046e-06
2.10391e-07
6.87728e-07
1.75894e-07
2.24234e-06
4.69098e-06
4.6928e-06
2.7154e-07
4.73468e-06
4.73676e-06
3.00971e-06
8.83853e-06
2.94601e-06
8.84538e-06
1.86486e-05
1.86356e-05
3.01029e-06
8.84046e-06
2.94578e-06
8.84728e-06
1.57137e-07
1.57142e-07
1.57139e-07
1.52214e-07
1.52212e-07
1.52218e-07
1.52214e-07
7.6481e-07
2.31898e-06
1.71256e-07
2.0906e-07
7.44223e-07
2.35553e-06
1.69871e-07
1.86502e-05
1.86371e-05
7.64851e-07
1.71256e-07
2.3191e-06
2.09081e-07
7.44264e-07
1.69876e-07
2.35575e-06
4.80345e-06
4.8053e-06
2.78733e-07
4.83983e-06
4.84191e-06
3.17893e-06
8.85423e-06
3.11798e-06
8.86066e-06
1.86062e-05
1.85943e-05
3.17951e-06
8.85616e-06
3.11777e-06
8.86255e-06
1.50688e-07
1.50694e-07
1.5069e-07
1.46458e-07
1.46456e-07
1.46463e-07
1.46459e-07
8.33352e-07
2.42929e-06
1.66199e-07
2.09782e-07
8.09988e-07
2.46395e-06
1.65132e-07
1.86077e-05
1.85961e-05
8.33395e-07
1.66198e-07
2.42942e-06
2.09807e-07
8.10031e-07
1.65138e-07
2.46418e-06
4.89709e-06
4.89896e-06
2.89305e-07
4.92677e-06
4.92884e-06
3.33457e-06
8.86899e-06
3.27892e-06
8.87513e-06
1.85674e-05
1.8557e-05
3.33514e-06
8.87096e-06
3.27874e-06
8.87706e-06
1.4516e-07
1.45167e-07
1.45162e-07
1.416e-07
1.41597e-07
1.41605e-07
1.416e-07
9.09221e-07
2.53328e-06
1.62417e-07
2.12564e-07
8.83636e-07
2.56549e-06
1.61663e-07
1.85691e-05
1.85585e-05
9.09265e-07
1.62417e-07
2.53341e-06
2.12593e-07
8.83682e-07
1.61668e-07
2.56571e-06
4.97421e-06
4.97608e-06
3.03274e-07
4.99813e-06
5.0002e-06
3.47187e-06
8.88316e-06
3.42314e-06
8.88901e-06
1.85318e-05
1.85218e-05
3.47244e-06
8.88507e-06
3.42298e-06
8.89083e-06
1.40519e-07
1.40527e-07
1.40522e-07
1.37602e-07
1.37599e-07
1.37608e-07
1.37603e-07
9.90454e-07
2.62947e-06
1.59916e-07
2.17438e-07
9.63345e-07
2.65888e-06
1.59467e-07
1.85333e-05
1.85234e-05
9.90498e-07
1.59917e-07
2.6296e-06
2.1747e-07
9.63392e-07
1.59471e-07
2.65909e-06
5.03739e-06
5.03926e-06
3.20638e-07
5.05653e-06
5.05859e-06
3.58824e-06
8.89648e-06
3.5473e-06
8.90188e-06
1.84981e-05
1.84888e-05
3.58881e-06
8.89827e-06
3.54712e-06
8.90363e-06
1.36731e-07
1.36741e-07
1.36735e-07
1.34445e-07
1.34442e-07
1.34452e-07
1.34446e-07
1.07477e-06
2.71698e-06
1.58686e-07
2.24416e-07
1.04692e-06
2.74344e-06
1.5856e-07
1.84998e-05
1.84908e-05
1.07482e-06
1.58688e-07
2.7171e-06
2.2445e-07
1.04696e-06
1.58563e-07
2.74364e-06
5.08906e-06
5.09093e-06
3.41319e-07
5.10427e-06
5.10632e-06
3.68301e-06
8.90867e-06
3.65047e-06
8.91352e-06
1.84667e-05
1.84583e-05
3.68356e-06
8.91042e-06
3.65031e-06
8.91533e-06
1.3378e-07
1.3379e-07
1.33784e-07
1.32083e-07
1.3208e-07
1.32091e-07
1.32085e-07
1.15974e-06
2.79544e-06
1.58741e-07
2.33478e-07
1.13199e-06
2.81886e-06
1.58956e-07
1.84686e-05
1.84602e-05
1.15978e-06
1.58741e-07
2.79556e-06
2.33515e-07
1.13204e-06
1.58963e-07
2.81908e-06
5.13118e-06
5.13307e-06
3.65143e-07
5.14331e-06
5.14531e-06
3.75753e-06
8.91878e-06
3.73229e-06
8.92158e-06
1.84372e-05
1.84292e-05
3.75804e-06
8.92055e-06
3.73215e-06
8.92342e-06
1.31613e-07
1.31624e-07
1.31617e-07
1.30498e-07
1.30496e-07
1.30508e-07
1.30501e-07
1.24261e-06
2.86471e-06
1.60086e-07
2.44536e-07
1.21586e-06
2.88474e-06
1.60619e-07
1.84389e-05
1.84309e-05
1.24266e-06
1.60087e-07
2.86483e-06
2.44577e-07
1.21591e-06
1.60628e-07
2.88497e-06
5.16504e-06
5.16696e-06
3.91712e-07
5.17417e-06
5.17614e-06
3.80985e-06
8.92494e-06
3.79468e-06
8.92809e-06
1.84113e-05
1.84054e-05
3.8103e-06
8.92675e-06
3.79459e-06
8.92997e-06
1.30207e-07
1.30219e-07
1.30211e-07
1.29515e-07
1.29514e-07
1.29526e-07
1.29519e-07
1.3198e-06
2.92295e-06
1.62673e-07
2.57221e-07
1.29568e-06
2.93929e-06
1.63478e-07
1.84131e-05
1.84073e-05
1.31984e-06
1.62674e-07
2.92307e-06
2.57265e-07
1.29572e-06
1.63486e-07
2.93947e-06
5.19117e-06
5.19311e-06
4.19985e-07
5.19873e-06
5.20066e-06
3.83269e-06
8.92924e-06
3.82839e-06
8.9285e-06
1.83861e-05
1.83777e-05
3.83289e-06
8.9311e-06
3.82841e-06
8.93035e-06
1.29331e-07
1.29344e-07
1.29336e-07
1.2889e-07
1.2889e-07
1.28903e-07
1.28896e-07
1.38301e-06
2.96963e-06
1.66171e-07
2.70614e-07
1.36472e-06
2.98106e-06
1.67121e-07
1.83878e-05
1.83796e-05
1.38303e-06
1.66174e-07
2.96975e-06
2.70662e-07
1.36474e-06
1.6713e-07
2.98125e-06
5.21013e-06
5.21211e-06
4.47898e-07
5.21272e-06
5.21473e-06
3.83458e-06
8.922e-06
3.83546e-06
8.91759e-06
1.83558e-05
1.83465e-05
3.83485e-06
8.92388e-06
3.83565e-06
8.91953e-06
1.28756e-07
1.28771e-07
1.28763e-07
1.28174e-07
1.28174e-07
1.28189e-07
1.2818e-07
1.4239e-06
2.9999e-06
1.69966e-07
2.82889e-07
1.41358e-06
3.00474e-06
1.70812e-07
1.83576e-05
1.83481e-05
1.42392e-06
1.69971e-07
2.99989e-06
2.8294e-07
1.41361e-06
1.70821e-07
3.00479e-06
5.21508e-06
5.21695e-06
4.70964e-07
5.2137e-06
5.21559e-06
3.8275e-06
8.90671e-06
3.83136e-06
8.901e-06
1.83249e-05
1.83177e-05
3.8276e-06
8.90871e-06
3.83139e-06
8.90306e-06
1.27847e-07
1.27863e-07
1.27854e-07
1.26318e-07
1.26317e-07
1.26332e-07
1.26325e-07
1.44249e-06
3.01023e-06
1.72544e-07
2.90864e-07
1.43902e-06
3.00914e-06
1.7276e-07
1.83261e-05
1.83189e-05
1.44247e-06
1.7255e-07
3.01028e-06
2.9092e-07
1.43901e-06
1.72769e-07
3.0093e-06
5.2093e-06
5.21113e-06
4.84912e-07
5.20544e-06
5.2073e-06
3.81963e-06
8.89081e-06
3.8231e-06
8.88705e-06
1.83019e-05
1.82979e-05
3.81975e-06
8.89285e-06
3.8231e-06
8.8891e-06
1.25659e-07
1.25676e-07
1.25669e-07
1.23679e-07
1.23676e-07
1.23687e-07
1.23682e-07
1.44651e-06
3.00704e-06
1.72655e-07
2.9307e-07
1.44667e-06
3.00421e-06
1.72259e-07
1.83029e-05
1.8299e-05
1.44653e-06
1.72663e-07
3.00723e-06
2.93137e-07
1.44667e-06
1.72273e-07
3.00447e-06
5.2001e-06
5.20196e-06
4.89365e-07
5.1961e-06
5.19798e-06
3.81235e-06
8.88132e-06
3.81523e-06
8.87957e-06
1.82884e-05
1.82875e-05
3.81249e-06
8.88334e-06
3.81527e-06
8.88164e-06
1.23108e-07
1.23136e-07
1.23132e-07
1.21916e-07
1.21913e-07
1.21878e-07
1.21874e-07
1.44551e-06
3.00172e-06
1.71174e-07
2.93031e-07
1.44657e-06
2.9994e-06
1.70889e-07
1.82893e-05
1.82887e-05
1.44558e-06
1.71187e-07
3.00192e-06
2.93106e-07
1.44663e-06
1.70908e-07
2.99965e-06
5.19218e-06
5.19405e-06
4.8983e-07
5.18985e-06
5.19174e-06
3.80844e-06
8.87704e-06
3.80975e-06
8.87651e-06
1.82823e-05
1.82833e-05
3.80839e-06
8.87908e-06
3.80969e-06
8.87857e-06
1.21611e-07
1.217e-07
1.21696e-07
1.44415e-06
2.998e-06
1.7047e-07
2.93144e-07
1.44508e-06
2.99696e-06
1.70455e-07
1.82834e-05
1.70528e-07
2.99819e-06
1.44512e-06
5.18804e-06
5.18986e-06
5.35254e-07
5.35992e-07
5.35989e-07
1.09168e-05
5.81344e-07
1.09181e-05
5.81336e-07
5.28209e-07
2.43154e-06
2.43249e-06
5.40836e-07
5.40833e-07
5.34573e-07
5.35517e-07
5.33636e-07
5.35654e-07
5.34573e-07
5.35516e-07
5.33635e-07
5.35654e-07
5.30399e-07
3.47213e-06
5.68203e-07
8.20527e-07
5.30398e-07
3.47216e-06
5.68202e-07
8.20492e-07
5.29521e-07
5.2838e-07
1.17048e-06
5.09602e-07
5.32663e-07
5.28353e-07
5.19184e-07
5.29521e-07
5.2838e-07
1.17062e-06
5.09601e-07
5.32662e-07
5.28353e-07
5.19187e-07
5.35254e-07
5.35991e-07
5.35989e-07
1.0917e-05
5.81322e-07
5.28209e-07
2.43204e-06
2.43216e-06
5.40836e-07
5.40832e-07
1.09177e-05
5.81317e-07
5.34573e-07
5.35516e-07
5.33635e-07
5.35654e-07
5.34573e-07
5.35516e-07
5.35654e-07
5.33636e-07
5.30398e-07
3.47248e-06
5.682e-07
8.2067e-07
5.29521e-07
5.28381e-07
1.17074e-06
5.09602e-07
5.32662e-07
5.28353e-07
5.19193e-07
5.30398e-07
3.47256e-06
5.68198e-07
8.20573e-07
5.29521e-07
5.2838e-07
5.09602e-07
1.17065e-06
5.28353e-07
5.32661e-07
5.19187e-07
5.35663e-07
5.35601e-07
5.35655e-07
5.35655e-07
5.35663e-07
5.35601e-07
5.35655e-07
5.35655e-07
5.35663e-07
5.35601e-07
5.35655e-07
5.35655e-07
5.28434e-07
5.28376e-07
5.09724e-07
5.09724e-07
5.28408e-07
5.28408e-07
5.09781e-07
5.28434e-07
5.28375e-07
5.09724e-07
5.09724e-07
5.28408e-07
5.28408e-07
5.09781e-07
5.28434e-07
5.28375e-07
5.09724e-07
5.09724e-07
5.28408e-07
5.28408e-07
5.09781e-07
5.28434e-07
5.28376e-07
5.09724e-07
5.09724e-07
5.28408e-07
5.28408e-07
5.09781e-07
5.34573e-07
5.35517e-07
5.35654e-07
5.33635e-07
5.29521e-07
5.2838e-07
1.17069e-06
5.09602e-07
5.32661e-07
5.28353e-07
5.1919e-07
5.30398e-07
3.47237e-06
5.68194e-07
8.20578e-07
5.29521e-07
5.2838e-07
5.09602e-07
1.17055e-06
5.28353e-07
5.32661e-07
5.19186e-07
5.30398e-07
3.4725e-06
5.68198e-07
8.20522e-07
5.35254e-07
5.35989e-07
5.35988e-07
1.09183e-05
5.81333e-07
5.28209e-07
2.43232e-06
2.43217e-06
5.40832e-07
5.40829e-07
1.09181e-05
5.81312e-07
5.34573e-07
5.35516e-07
5.35654e-07
5.33635e-07
5.29521e-07
5.2838e-07
5.09602e-07
1.17062e-06
5.28353e-07
5.3266e-07
5.1919e-07
5.29521e-07
5.28381e-07
5.09602e-07
1.17074e-06
5.28353e-07
5.32662e-07
5.19193e-07
5.30398e-07
3.47253e-06
5.68192e-07
8.20646e-07
5.30398e-07
3.47254e-06
5.68203e-07
8.20735e-07
5.28209e-07
2.43197e-06
2.43261e-06
5.4083e-07
5.40831e-07
1.0918e-05
5.81316e-07
1.09182e-05
5.8133e-07
1.26054e-05
1.66026e-05
1.26069e-05
1.66052e-05
2.52018e-06
2.52092e-06
4.84191e-07
2.38044e-06
2.3812e-06
2.05319e-05
1.7689e-05
2.05354e-05
1.76919e-05
4.79311e-07
2.30852e-06
2.30917e-06
2.34327e-06
2.34402e-06
1.10831e-06
3.87949e-06
9.3297e-07
4.6052e-06
5.43196e-07
1.22274e-06
4.95564e-07
4.85543e-07
5.25297e-07
1.21054e-06
4.82304e-07
5.43193e-07
1.22292e-06
4.95564e-07
4.8555e-07
5.25305e-07
1.21077e-06
4.82304e-07
1.16251e-06
5.40674e-06
4.80896e-06
1.28108e-06
1.16262e-06
5.40671e-06
4.80903e-06
1.28109e-06
5.51159e-07
4.74327e-07
1.19172e-06
4.57771e-07
1.20561e-06
4.69717e-07
5.66578e-07
5.51162e-07
4.74335e-07
1.1919e-06
4.57771e-07
1.20579e-06
4.69717e-07
5.66574e-07
2.52065e-06
2.52039e-06
4.8419e-07
2.38106e-06
2.38058e-06
1.26061e-05
1.66038e-05
2.05331e-05
1.76907e-05
4.79311e-07
2.30903e-06
2.30874e-06
2.34378e-06
2.34362e-06
2.05332e-05
1.76897e-05
5.43229e-07
1.223e-06
4.95564e-07
4.85548e-07
5.25298e-07
1.21079e-06
4.82304e-07
1.10853e-06
3.87998e-06
9.32736e-07
4.60604e-06
5.43224e-07
4.95564e-07
1.22296e-06
4.85551e-07
5.25287e-07
4.82304e-07
1.2108e-06
1.16253e-06
5.40722e-06
4.8093e-06
1.28123e-06
5.51162e-07
4.74333e-07
1.19191e-06
4.57771e-07
1.20582e-06
4.69717e-07
5.66594e-07
1.16252e-06
5.40775e-06
4.80973e-06
1.28124e-06
5.51161e-07
4.74337e-07
4.57772e-07
1.19196e-06
4.69718e-07
1.20585e-06
5.66602e-07
1.10846e-06
3.87947e-06
9.32825e-07
4.60554e-06
5.43208e-07
4.95564e-07
1.22282e-06
4.85544e-07
5.25273e-07
4.82304e-07
1.21064e-06
1.10848e-06
3.87999e-06
9.32662e-07
4.60566e-06
5.51157e-07
4.74324e-07
1.19172e-06
4.5777e-07
1.20565e-06
4.69717e-07
5.66581e-07
1.16255e-06
5.40685e-06
4.80872e-06
1.28117e-06
5.51155e-07
4.74328e-07
4.57771e-07
1.19178e-06
4.69717e-07
1.20563e-06
5.6658e-07
1.16246e-06
5.40715e-06
4.80961e-06
1.28115e-06
2.52084e-06
2.52034e-06
4.84193e-07
2.38119e-06
2.38045e-06
1.26069e-05
1.66041e-05
2.05365e-05
1.76922e-05
4.79312e-07
2.30923e-06
2.30869e-06
2.34395e-06
2.34347e-06
2.0534e-05
1.76915e-05
5.43238e-07
4.95564e-07
1.223e-06
4.85549e-07
5.25276e-07
4.82304e-07
1.21078e-06
1.10872e-06
3.87995e-06
9.32604e-07
4.60574e-06
1.10879e-06
3.87984e-06
9.32723e-07
4.60563e-06
5.51156e-07
4.74325e-07
4.57771e-07
1.19177e-06
4.69717e-07
1.20567e-06
5.66594e-07
5.51156e-07
4.74332e-07
4.57771e-07
1.19189e-06
4.69717e-07
1.2058e-06
5.66601e-07
1.1623e-06
5.4074e-06
4.80959e-06
1.28126e-06
1.16233e-06
5.40737e-06
4.80933e-06
1.28129e-06
1.26065e-05
1.66041e-05
1.2607e-05
1.66048e-05
4.79312e-07
2.30865e-06
2.30914e-06
2.34317e-06
2.34397e-06
2.05333e-05
1.76909e-05
2.05349e-05
1.76923e-05
2.12838e-05
2.31095e-05
2.12876e-05
2.31136e-05
2.3149e-06
2.31558e-06
4.53484e-07
2.35715e-06
2.35776e-06
2.44715e-05
2.35345e-05
2.44751e-05
2.35382e-05
4.50894e-07
2.44679e-06
2.44739e-06
2.38538e-06
2.38596e-06
1.43194e-06
5.59211e-06
1.33019e-06
6.13512e-06
5.87311e-07
1.19311e-06
4.46442e-07
4.44311e-07
5.73985e-07
1.20212e-06
4.35699e-07
5.87306e-07
1.19326e-06
4.46442e-07
4.4432e-07
5.73982e-07
1.2023e-06
4.35699e-07
1.47622e-06
6.7768e-06
6.29973e-06
1.55934e-06
1.47619e-06
6.77693e-06
6.29979e-06
1.55931e-06
5.93596e-07
4.35328e-07
1.22854e-06
4.15798e-07
1.20997e-06
4.25498e-07
6.03945e-07
5.93587e-07
4.35337e-07
1.22866e-06
4.15799e-07
1.21013e-06
4.25498e-07
6.03941e-07
2.31535e-06
2.31508e-06
4.53479e-07
2.35758e-06
2.35726e-06
2.12845e-05
2.31107e-05
2.44725e-05
2.35364e-05
4.50892e-07
2.44723e-06
2.44672e-06
2.38578e-06
2.38574e-06
2.44722e-05
2.35354e-05
5.87329e-07
1.19332e-06
4.46442e-07
4.44314e-07
5.74e-07
1.2023e-06
4.357e-07
1.43235e-06
5.593e-06
1.33026e-06
6.13637e-06
5.87331e-07
4.46444e-07
1.19334e-06
4.44323e-07
5.74002e-07
4.357e-07
1.20237e-06
1.47596e-06
6.77748e-06
6.30051e-06
1.5596e-06
5.9361e-07
4.35332e-07
1.22867e-06
4.15799e-07
1.21013e-06
4.25498e-07
6.0396e-07
1.47597e-06
6.77829e-06
6.30087e-06
1.55963e-06
5.93616e-07
4.35341e-07
4.158e-07
1.22873e-06
4.255e-07
1.21026e-06
6.03968e-07
1.43211e-06
5.59198e-06
1.33016e-06
6.13518e-06
5.87317e-07
4.46442e-07
1.19315e-06
4.44313e-07
5.73988e-07
4.35699e-07
1.20223e-06
1.43199e-06
5.59268e-06
1.33027e-06
6.13564e-06
5.93592e-07
4.35322e-07
1.22846e-06
4.15797e-07
1.20998e-06
4.25497e-07
6.03948e-07
1.47609e-06