/*--------------------------------*- C++ -*----------------------------------*\
| =========                 |                                                 |
| \\      /  F ield         | OpenFOAM: The Open Source CFD Toolbox           |
|  \\    /   O peration     | Version:  v1912                                 |
|   \\  /    A nd           | Website:  www.openfoam.com                      |
|    \\/     M anipulation  |                                                 |
\*---------------------------------------------------------------------------*/
FoamFile
{
    version     2.0;
    format      ascii;
    class       volScalarField;
    location    "120";
    object      nut;
}
// * * * * * * * * * * * * * * * * * * * * * * * * * * * * * * * * * * * * * //

dimensions      [0 2 -1 0 0 0 0];


internalField   nonuniform List<scalar> 
57100
(
0.000233973
0.000233114
0.000233114
0.000233425
0.000232531
0.000227796
0.000227795
0.000223863
0.000230513
0.000220312
0.000220309
0.000209106
0.000227795
0.000211659
0.000211655
0.000193791
0.000224429
0.000202646
0.00020264
0.000179723
0.000220548
0.00019377
0.000193763
0.000167363
0.0002163
0.000185274
0.000185266
0.000156619
0.000211816
0.000177231
0.000177223
0.000147245
0.000207203
0.000169684
0.000169675
0.000138996
0.00020254
0.000162604
0.000162595
0.000131666
0.000197883
0.000155938
0.00015593
0.000125008
0.000193268
0.000149632
0.000149623
0.00011887
0.000188673
0.000143647
0.000143638
0.000113224
0.000184138
0.000137929
0.000137921
0.00010799
0.000179692
0.000132435
0.000132426
0.000103115
0.000175321
0.000127156
0.000127146
9.84941e-05
0.000171015
0.00012211
0.0001221
9.43083e-05
0.000166762
0.000117328
0.000117317
9.0715e-05
0.000162561
0.000112846
0.000112836
8.7786e-05
0.000158384
0.000108714
0.000108703
8.54382e-05
0.000154231
0.000104986
0.000104976
8.37208e-05
0.00015011
0.000101677
0.000101668
8.26346e-05
0.000146037
9.88736e-05
9.88655e-05
8.21551e-05
0.000142071
9.66164e-05
9.66093e-05
8.22155e-05
0.000138271
9.49257e-05
9.49195e-05
8.27525e-05
0.00013488
9.38769e-05
9.38716e-05
8.36977e-05
0.000132154
9.33433e-05
9.33387e-05
8.45698e-05
0.000129822
9.27668e-05
9.27617e-05
8.48918e-05
0.000128011
9.20672e-05
9.20641e-05
8.47621e-05
0.000127267
9.19264e-05
9.19247e-05
8.4828e-05
0.000234265
0.000234448
0.000234449
0.000234265
0.000234449
0.000234449
0.000234274
0.000234274
0.000234274
0.000234274
0.000234448
0.000234448
0.000234265
0.000234448
0.000234449
0.000234265
0.000233425
0.000226204
0.000233114
0.000233112
0.000229354
0.000229349
0.000233425
0.000226205
0.000233112
0.000233111
0.000229351
0.000229348
0.000233113
0.000229356
0.000229353
0.000233425
0.000226202
0.000233112
0.000229356
0.000229351
0.000226202
0.000223863
0.000212236
0.000227792
0.000227788
0.000222323
0.000222318
0.000223864
0.000212239
0.00022779
0.000227786
0.000222324
0.000222315
0.000227791
0.00022233
0.000222322
0.000223862
0.000212233
0.00022779
0.000222327
0.000222322
0.000212234
0.000209108
0.000197071
0.000220304
0.000220299
0.000213872
0.000213867
0.000209109
0.000197077
0.000220305
0.000220295
0.000213876
0.000213862
0.000220302
0.000213883
0.00021387
0.000209104
0.000197068
0.000220304
0.000213879
0.000213875
0.000197069
0.000193795
0.000182895
0.000211647
0.000211642
0.000204885
0.00020488
0.000193798
0.000182901
0.000211652
0.000211637
0.000204893
0.000204874
0.000211645
0.0002049
0.000204883
0.000193791
0.000182891
0.000211651
0.000204895
0.000204892
0.000182891
0.000179727
0.000170292
0.00020263
0.000202624
0.00019594
0.000195935
0.000179731
0.000170299
0.000202639
0.000202618
0.000195952
0.000195928
0.000202627
0.000195959
0.000195938
0.000179722
0.000170288
0.000202637
0.000195952
0.000195951
0.000170288
0.000167368
0.000159275
0.000193751
0.000193745
0.000187335
0.00018733
0.000167373
0.000159282
0.000193763
0.000193738
0.00018735
0.000187323
0.000193748
0.000187357
0.000187332
0.000167363
0.00015927
0.000193762
0.000187349
0.000187349
0.00015927
0.000156623
0.000149653
0.000185251
0.000185246
0.000179171
0.000179165
0.000156629
0.00014966
0.000185267
0.000185238
0.000179189
0.000179158
0.000185248
0.000179196
0.000179168
0.000156619
0.000149648
0.000185266
0.000179188
0.000179188
0.000149648
0.00014725
0.000141154
0.000177206
0.0001772
0.000171497
0.000171492
0.000147256
0.00014116
0.000177225
0.000177193
0.000171518
0.000171484
0.000177203
0.000171525
0.000171495
0.000147245
0.000141148
0.000177223
0.000171516
0.000171517
0.000141148
0.000139002
0.0001336
0.000169656
0.00016965
0.000164303
0.000164297
0.000139007
0.000133606
0.000169677
0.000169642
0.000164326
0.00016429
0.000169653
0.000164333
0.000164301
0.000138996
0.000133593
0.000169676
0.000164324
0.000164326
0.000133593
0.000131672
0.000126742
0.000162573
0.000162568
0.000157537
0.000157532
0.000131678
0.000126749
0.000162597
0.00016256
0.000157563
0.000157524
0.000162571
0.00015757
0.000157536
0.000131666
0.000126736
0.000162597
0.000157561
0.000157563
0.000126735
0.000125016
0.000120421
0.000155905
0.0001559
0.000151145
0.00015114
0.000125021
0.000120428
0.000155931
0.000155892
0.000151172
0.000151132
0.000155904
0.00015118
0.000151144
0.000125009
0.000120415
0.000155931
0.000151171
0.000151172
0.000120414
0.000118876
0.000114491
0.000149597
0.000149592
0.00014508
0.000145075
0.000118882
0.000114498
0.000149625
0.000149584
0.000145108
0.000145067
0.000149596
0.000145116
0.00014508
0.00011887
0.000114484
0.000149624
0.000145107
0.000145109
0.000114483
0.000113231
0.0001089
0.000143612
0.000143605
0.0001393
0.000139294
0.000113236
0.000108907
0.000143639
0.000143597
0.000139328
0.000139286
0.00014361
0.000139337
0.0001393
0.000113225
0.000108894
0.00014364
0.000139328
0.000139329
0.000108892
0.000107998
0.000103764
0.000137893
0.000137886
0.000133754
0.000133747
0.000108002
0.000103771
0.000137921
0.000137878
0.000133782
0.000133739
0.000137892
0.000133792
0.000133754
0.000107991
0.000103758
0.000137922
0.000133782
0.000133784
0.000103757
0.000103122
9.91873e-05
0.000132397
0.00013239
0.000128419
0.00012841
0.000103127
9.91931e-05
0.000132425
0.000132382
0.000128446
0.000128403
0.000132397
0.000128458
0.00012842
0.000103116
9.91811e-05
0.000132427
0.000128447
0.000128449
9.91802e-05
9.85006e-05
9.50467e-05
0.000127116
0.000127108
0.000123313
0.000123305
9.85062e-05
9.50527e-05
0.000127143
0.000127101
0.00012334
0.000123297
0.000127118
0.000123354
0.000123316
9.8495e-05
9.5041e-05
0.000127147
0.000123343
0.000123344
9.50406e-05
9.43139e-05
9.14914e-05
0.00012207
0.000122062
0.000118445
0.000118437
9.43196e-05
9.1497e-05
0.000122096
0.000122054
0.000118469
0.000118428
0.000122073
0.000118485
0.000118448
9.43087e-05
9.14859e-05
0.000122101
0.000118474
0.000118475
9.14858e-05
9.07196e-05
8.84324e-05
0.000117288
0.000117281
0.00011388
0.000113874
9.07253e-05
8.84379e-05
0.000117313
0.000117272
0.000113904
0.000113864
0.000117292
0.000113922
0.000113885
9.07153e-05
8.84274e-05
0.000117319
0.000113911
0.000113911
8.84276e-05
8.77902e-05
8.5963e-05
0.000112807
0.0001128
0.00010965
0.000109644
8.77956e-05
8.59683e-05
0.00011283
0.00011279
0.000109672
0.000109634
0.000112811
0.000109691
0.000109655
8.77859e-05
8.59586e-05
0.000112837
0.00010968
0.00010968
8.5959e-05
8.54419e-05
8.41218e-05
0.000108675
0.000108668
0.000105808
0.0001058
8.5447e-05
8.41269e-05
0.000108696
0.000108658
0.000105829
0.000105791
0.00010868
0.000105847
0.000105813
8.54379e-05
8.4118e-05
0.000108704
0.000105837
0.000105836
8.41185e-05
8.37238e-05
8.29135e-05
0.00010495
0.00010494
0.000102422
0.000102411
8.37288e-05
8.29182e-05
0.00010497
0.000104932
0.00010244
0.000102403
0.000104954
0.000102458
0.000102425
8.37205e-05
8.291e-05
0.000104977
0.000102448
0.000102447
8.29106e-05
8.26371e-05
8.23173e-05
0.000101644
0.000101632
9.94954e-05
9.94831e-05
8.26414e-05
8.23213e-05
0.000101662
0.000101625
9.95123e-05
9.94763e-05
0.000101647
9.95291e-05
9.94985e-05
8.26341e-05
8.23142e-05
0.000101669
9.95208e-05
9.95192e-05
8.23148e-05
8.21573e-05
8.22697e-05
9.88424e-05
9.883e-05
9.7094e-05
9.70809e-05
8.2161e-05
8.2273e-05
9.8859e-05
9.88234e-05
9.71095e-05
9.70751e-05
9.88454e-05
9.71258e-05
9.70967e-05
8.21547e-05
8.22672e-05
9.88662e-05
9.71183e-05
9.71165e-05
8.22677e-05
8.22172e-05
8.27164e-05
9.6588e-05
9.65749e-05
9.52719e-05
9.52583e-05
8.22203e-05
8.27191e-05
9.66033e-05
9.65692e-05
9.52861e-05
9.52533e-05
9.65907e-05
9.53007e-05
9.52743e-05
8.22152e-05
8.27143e-05
9.661e-05
9.52942e-05
9.52921e-05
8.2715e-05
8.27538e-05
8.35611e-05
9.48991e-05
9.48855e-05
9.40438e-05
9.40299e-05
8.27563e-05
8.35635e-05
9.49129e-05
9.48807e-05
9.40568e-05
9.40259e-05
9.49015e-05
9.40712e-05
9.40462e-05
8.27521e-05
8.35578e-05
9.49187e-05
9.40656e-05
9.40619e-05
8.35594e-05
8.37011e-05
8.44883e-05
9.38535e-05
9.38396e-05
9.34481e-05
9.3434e-05
8.37033e-05
8.44897e-05
9.38664e-05
9.38357e-05
9.34603e-05
9.34301e-05
9.3856e-05
9.34723e-05
9.34506e-05
8.36976e-05
8.44883e-05
9.38712e-05
9.34676e-05
9.34652e-05
8.4488e-05
8.45698e-05
8.49055e-05
9.33208e-05
9.33067e-05
9.28661e-05
9.28518e-05
8.45713e-05
8.49074e-05
9.33327e-05
9.3303e-05
9.2877e-05
9.28488e-05
9.33235e-05
9.289e-05
9.28694e-05
8.45694e-05
8.49051e-05
9.33377e-05
9.28856e-05
9.28819e-05
8.49064e-05
8.48888e-05
8.48286e-05
9.27429e-05
9.27284e-05
9.2181e-05
9.21664e-05
8.48907e-05
8.48276e-05
9.27533e-05
9.27261e-05
9.21918e-05
9.21629e-05
9.27457e-05
9.22012e-05
9.21851e-05
8.48885e-05
8.48251e-05
9.27579e-05
9.21979e-05
9.21967e-05
8.48287e-05
8.47583e-05
8.48192e-05
9.20461e-05
9.20309e-05
9.19113e-05
9.18964e-05
8.47574e-05
8.4819e-05
9.20563e-05
9.20278e-05
9.1922e-05
9.18927e-05
9.20499e-05
9.19306e-05
9.1915e-05
8.47554e-05
8.48167e-05
9.20613e-05
9.1928e-05
9.19267e-05
8.48184e-05
8.48206e-05
9.19072e-05
9.1892e-05
8.48198e-05
9.19172e-05
9.18904e-05
9.19129e-05
8.48177e-05
9.19242e-05
0.00023473
0.000234746
0.000234729
0.000234729
0.000235117
0.000234798
0.000234702
0.000234727
0.000235117
0.000234798
0.000234727
0.000234702
0.000234867
0.000233566
0.000233566
0.000104561
3.87367e-05
0.000129255
3.98224e-05
2.16819e-05
2.28324e-05
0.000104552
3.87327e-05
0.000129251
3.98189e-05
0.000233973
0.000233973
0.000233973
0.000232934
0.000232934
0.000232934
0.000232934
0.000206171
9.34622e-05
0.000233969
0.000231987
0.000222635
8.70979e-05
0.000233611
2.16809e-05
2.28318e-05
0.000206165
0.000233969
9.34628e-05
0.000231986
0.000222642
0.000233611
8.71018e-05
4.7813e-05
4.78014e-05
0.000231345
4.38929e-05
4.38836e-05
7.25203e-05
4.24307e-05
8.13678e-05
4.37601e-05
2.47754e-05
2.54637e-05
7.25108e-05
4.24272e-05
8.13631e-05
4.37563e-05
0.000232531
0.00023253
0.00023253
0.000231082
0.000231082
0.000231081
0.000231081
0.000167421
7.94634e-05
0.00023208
0.00022609
0.000180149
7.45457e-05
0.000231374
2.47736e-05
2.54622e-05
0.000167417
0.00023208
7.94581e-05
0.000226088
0.000180143
0.000231373
7.4548e-05
3.91042e-05
3.9094e-05
0.000219597
3.6505e-05
3.64943e-05
5.62219e-05
4.5544e-05
6.10733e-05
4.64103e-05
2.60137e-05
2.61175e-05
5.62265e-05
4.55413e-05
6.1069e-05
4.64073e-05
0.000230513
0.000230512
0.000230512
0.000228539
0.00022854
0.000228538
0.000228539
0.000138503
6.7491e-05
0.000228638
0.000218223
0.000147972
6.35833e-05
0.00022753
2.60115e-05
2.61154e-05
0.000138499
0.000228637
6.74863e-05
0.000218219
0.000147963
0.000227527
6.35796e-05
3.31481e-05
3.31395e-05
0.000204622
3.19235e-05
3.19144e-05
4.69122e-05
4.74978e-05
4.98534e-05
4.80034e-05
2.60471e-05
2.59389e-05
4.69114e-05
4.74944e-05
4.98536e-05
4.80006e-05
0.000227795
0.000227794
0.000227794
0.000225324
0.000225325
0.000225322
0.000225323
0.000117439
5.82661e-05
0.000223709
0.000209414
0.000124495
5.55432e-05
0.000222296
2.60446e-05
2.59369e-05
0.000117436
0.000223708
5.82644e-05
0.000209409
0.000124489
0.000222293
5.55398e-05
3.05536e-05
3.05457e-05
0.000189794
3.02431e-05
3.02354e-05
4.13812e-05
4.85828e-05
4.31938e-05
4.88403e-05
2.56749e-05
2.55192e-05
4.13803e-05
4.85793e-05
4.31942e-05
4.88373e-05
0.000224429
0.000224427
0.000224428
0.000221558
0.000221558
0.000221555
0.000221556
0.000102003
5.19254e-05
0.000217753
0.000200401
0.00010727
5.01212e-05
0.000216161
2.56723e-05
2.55173e-05
0.000102001
0.000217751
5.19239e-05
0.000200395
0.000107264
0.000216157
5.01186e-05
3.01241e-05
3.01179e-05
0.00017639
3.03493e-05
3.03415e-05
3.81151e-05
4.9095e-05
3.91988e-05
4.92006e-05
2.52369e-05
2.5093e-05
3.81141e-05
4.90917e-05
3.9199e-05
4.91975e-05
0.000220548
0.000220545
0.000220546
0.000217388
0.000217389
0.000217385
0.000217387
9.03902e-05
4.77741e-05
0.000211245
0.000191606
9.43528e-05
4.66469e-05
0.000209578
2.52343e-05
2.50912e-05
9.03892e-05
0.000211243
4.77728e-05
0.000191598
9.43469e-05
0.000209573
4.66447e-05
3.09175e-05
3.09116e-05
0.00016459
3.1522e-05
3.15156e-05
3.63395e-05
4.92778e-05
3.69025e-05
4.92999e-05
2.48475e-05
2.47315e-05
3.63383e-05
4.92747e-05
3.69023e-05
4.92967e-05
0.000216301
0.000216296
0.000216298
0.000212953
0.000212954
0.000212948
0.000212951
8.14903e-05
4.51947e-05
0.00020455
0.000183218
8.45711e-05
4.45797e-05
0.000202877
2.48451e-05
2.47297e-05
8.149e-05
0.000204547
4.51937e-05
0.00018321
8.45652e-05
0.000202871
4.45769e-05
3.2475e-05
3.24698e-05
0.000154303
3.3308e-05
3.33026e-05
3.56471e-05
4.92967e-05
3.57897e-05
4.92874e-05
2.45337e-05
2.44458e-05
3.56448e-05
4.92936e-05
3.57893e-05
4.92843e-05
0.000211817
0.000211812
0.000211814
0.000208363
0.000208364
0.000208358
0.000208361
7.45536e-05
4.37932e-05
0.000197905
0.000175298
7.70264e-05
4.35434e-05
0.000196269
2.45314e-05
2.44438e-05
7.45533e-05
0.000197902
4.37914e-05
0.000175289
7.70209e-05
0.000196263
4.35409e-05
3.45139e-05
3.45095e-05
0.000145264
3.54751e-05
3.54711e-05
3.57364e-05
4.92617e-05
3.56134e-05
4.92504e-05
2.42931e-05
2.42278e-05
3.57343e-05
4.92586e-05
3.5612e-05
4.92473e-05
0.000207204
0.000207197
0.0002072
0.000203706
0.000203707
0.0002037
0.000203704
6.90948e-05
4.32604e-05
0.000191445
0.000167872
7.11195e-05
4.32512e-05
0.000189863
2.42911e-05
2.42258e-05
6.9094e-05
0.000191443
4.32592e-05
0.000167864
7.11145e-05
0.000189856
4.32494e-05
3.68398e-05
3.68362e-05
0.000137268
3.78756e-05
3.78728e-05
3.65375e-05
4.9233e-05
3.6188e-05
4.92291e-05
2.41144e-05
2.4067e-05
3.65356e-05
4.92301e-05
3.61868e-05
4.92262e-05
0.000202541
0.000202534
0.000202537
0.000199044
0.000199045
0.000199038
0.000199041
6.47978e-05
4.33971e-05
0.000185198
0.000160901
6.64347e-05
4.35797e-05
0.000183675
2.41124e-05
2.4065e-05
6.47959e-05
0.000185195
4.33964e-05
0.000160893
6.64316e-05
0.000183668
4.35784e-05
3.93219e-05
3.93192e-05
0.000130089
4.03893e-05
4.0388e-05
3.8033e-05
4.92287e-05
3.73794e-05
4.92339e-05
2.3985e-05
2.39514e-05
3.80471e-05
4.92256e-05
3.73609e-05
4.92309e-05
0.000197884
0.000197877
0.000197881
0.000194415
0.000194416
0.000194408
0.000194412
6.14489e-05
4.40764e-05
0.000179209
0.000154332
6.26899e-05
4.44176e-05
0.000177757
2.39831e-05
2.39495e-05
6.14475e-05
0.000179206
4.40761e-05
0.000154323
6.26879e-05
0.00017775
4.44168e-05
4.1856e-05
4.18543e-05
0.000123515
4.292e-05
4.29198e-05
4.01034e-05
4.92463e-05
3.91294e-05
4.92593e-05
2.38934e-05
2.387e-05
4.01074e-05
4.92434e-05
3.91204e-05
4.92564e-05
0.000193269
0.000193261
0.000193265
0.000189821
0.000189823
0.000189814
0.000189819
5.89584e-05
4.52049e-05
0.000173501
0.000148108
5.9799e-05
4.56777e-05
0.000172115
2.38914e-05
2.38681e-05
5.89569e-05
0.000173498
4.52048e-05
0.000148099
5.9797e-05
0.000172108
4.56771e-05
4.4357e-05
4.43563e-05
0.000117409
4.53891e-05
4.539e-05
4.26526e-05
4.92795e-05
4.14321e-05
4.9296e-05
2.38292e-05
2.38131e-05
4.26422e-05
4.92768e-05
4.14343e-05
4.92932e-05
0.000188674
0.000188666
0.00018867
0.000185264
0.000185266
0.000185257
0.000185262
5.71688e-05
4.67057e-05
0.000168044
0.000142196
5.76804e-05
4.7286e-05
0.000166717
2.38273e-05
2.38112e-05
5.71669e-05
0.000168042
4.67058e-05
0.000142186
5.76783e-05
0.00016671
4.72856e-05
4.67573e-05
4.67574e-05
0.000111637
4.77372e-05
4.7739e-05
4.55921e-05
4.93184e-05
4.42216e-05
4.93351e-05
2.37842e-05
2.37729e-05
4.55821e-05
4.93158e-05
4.42285e-05
4.93324e-05
0.00018414
0.000184131
0.000184136
0.000180797
0.000180798
0.000180789
0.000180794
5.60089e-05
4.85047e-05
0.000162806
0.000136539
5.62993e-05
4.91672e-05
0.000161527
2.37822e-05
2.37709e-05
5.60072e-05
0.000162804
4.85049e-05
0.00013653
5.62975e-05
0.000161521
4.91668e-05
4.90082e-05
4.90089e-05
0.000106258
4.9925e-05
4.99273e-05
4.88434e-05
4.93566e-05
4.73715e-05
4.9372e-05
2.37515e-05
2.37432e-05
4.88341e-05
4.9354e-05
4.73787e-05
4.93693e-05
0.000179693
0.000179684
0.000179689
0.000176408
0.00017641
0.0001764
0.000176406
5.55058e-05
5.05263e-05
0.000157752
0.000131097
5.55813e-05
5.12463e-05
0.000156515
2.37495e-05
2.37412e-05
5.55042e-05
0.000157751
5.05266e-05
0.000131087
5.55796e-05
0.000156509
5.1246e-05
5.10827e-05
5.10838e-05
0.000101412
5.19323e-05
5.19347e-05
5.22756e-05
4.93915e-05
5.07536e-05
4.94054e-05
2.37263e-05
2.37197e-05
5.22666e-05
4.9389e-05
5.07611e-05
4.94028e-05
0.000175323
0.000175314
0.000175319
0.000172088
0.000172089
0.00017208
0.000172086
5.56409e-05
5.26978e-05
0.000152853
0.000125876
5.55077e-05
5.34524e-05
0.000151653
2.37245e-05
2.37179e-05
5.56394e-05
0.000152852
5.26981e-05
0.000125865
5.55062e-05
0.000151647
5.34521e-05
5.29724e-05
5.2974e-05
9.70495e-05
5.37544e-05
5.37565e-05
5.5748e-05
4.94232e-05
5.42292e-05
4.9436e-05
2.37056e-05
2.37001e-05
5.57395e-05
4.94207e-05
5.42369e-05
4.94334e-05
0.000171017
0.000171007
0.000171013
0.000167821
0.000167823
0.000167813
0.000167819
5.63881e-05
5.49521e-05
0.000148104
0.000120893
5.60564e-05
5.57207e-05
0.000146938
2.37039e-05
2.36983e-05
5.63867e-05
0.000148104
5.49524e-05
0.000120881
5.6055e-05
0.000146932
5.57204e-05
5.46825e-05
5.46846e-05
9.31885e-05
5.53983e-05
5.53998e-05
5.91271e-05
4.94524e-05
5.76611e-05
4.94644e-05
2.36877e-05
2.3683e-05
5.9119e-05
4.94499e-05
5.76689e-05
4.94618e-05
0.000166764
0.000166754
0.000166761
0.000163604
0.000163607
0.000163596
0.000163603
5.77051e-05
5.72307e-05
0.000143473
0.000116171
5.71913e-05
5.79961e-05
0.000142332
2.36859e-05
2.36809e-05
5.77038e-05
0.000143473
5.72309e-05
0.00011616
5.71901e-05
0.000142326
5.79957e-05
5.62272e-05
5.62301e-05
8.98818e-05
5.68777e-05
5.68786e-05
6.23054e-05
4.94803e-05
6.09307e-05
4.94916e-05
2.36714e-05
2.36667e-05
6.22976e-05
4.94774e-05
6.09385e-05
4.94888e-05
0.000162564
0.000162554
0.000162561
0.000159426
0.000159429
0.000159418
0.000159425
5.95261e-05
5.94852e-05
0.000138943
0.00011176
5.88548e-05
6.0234e-05
0.000137831
2.36695e-05
2.3665e-05
5.95248e-05
0.000138943
5.94853e-05
0.000111748
5.88536e-05
0.000137828
6.02335e-05
5.76237e-05
5.76266e-05
8.71155e-05
5.82128e-05
5.82137e-05
6.52104e-05
4.95063e-05
6.3951e-05
4.95168e-05
2.36561e-05
2.3652e-05
6.5203e-05
4.95036e-05
6.39587e-05
4.95143e-05
0.000158388
0.000158378
0.000158385
0.000155267
0.00015527
0.000155259
0.000155266
6.17679e-05
6.16795e-05
0.000134516
0.000107718
6.09683e-05
6.24025e-05
0.000133448
2.36542e-05
2.36501e-05
6.17666e-05
0.000134516
6.16795e-05
0.000107707
6.0967e-05
0.000133446
6.24018e-05
5.88865e-05
5.88892e-05
8.49596e-05
5.94219e-05
5.94227e-05
6.78068e-05
4.95306e-05
6.66737e-05
4.95403e-05
2.36421e-05
2.36383e-05
6.77998e-05
4.95285e-05
6.6681e-05
4.95385e-05
0.000154235
0.000154224
0.000154232
0.00015114
0.000151142
0.000151131
0.000151139
6.43364e-05
6.37895e-05
0.000130224
0.000104119
6.34402e-05
6.44808e-05
0.000129191
2.364e-05
2.36361e-05
6.43351e-05
0.000130222
6.37855e-05
0.00010411
6.3439e-05
0.00012919
6.44878e-05
6.00319e-05
6.00344e-05
8.34366e-05
6.05195e-05
6.05202e-05
7.00863e-05
4.95529e-05
6.90898e-05
4.95619e-05
2.36289e-05
2.36254e-05
7.00798e-05
4.9551e-05
6.90969e-05
4.95602e-05
0.000150115
0.000150103
0.000150112
0.000147052
0.000147054
0.000147043
0.000147051
6.71334e-05
6.57965e-05
0.000126097
0.000100931
6.61732e-05
6.64652e-05
0.000125091
2.36267e-05
2.36231e-05
6.71322e-05
0.000126098
6.57849e-05
0.000100923
6.6172e-05
0.000125088
6.6476e-05
6.10739e-05
6.10761e-05
8.25386e-05
6.1519e-05
6.152e-05
7.20695e-05
4.9572e-05
7.12042e-05
4.95773e-05
2.36164e-05
2.36129e-05
7.20637e-05
4.95701e-05
7.12108e-05
4.95756e-05
0.000146042
0.00014603
0.000146039
0.00014305
0.000143051
0.00014304
0.000143049
7.00598e-05
6.76863e-05
0.000122161
9.82552e-05
6.90701e-05
6.8329e-05
0.000121219
2.36141e-05
2.36106e-05
7.00584e-05
0.000122162
6.76765e-05
9.82473e-05
6.90689e-05
0.000121216
6.83375e-05
6.20157e-05
6.20172e-05
8.22256e-05
6.2411e-05
6.24131e-05
7.37442e-05
4.95834e-05
7.30267e-05
4.95892e-05
2.36052e-05
2.36027e-05
7.374e-05
4.95816e-05
7.30323e-05
4.95875e-05
0.000142076
0.000142064
0.000142073
0.000139206
0.000139207
0.000139196
0.000139205
7.30001e-05
6.94545e-05
0.000118521
9.61467e-05
7.20215e-05
7.00756e-05
0.000117668
2.36029e-05
2.36005e-05
7.29986e-05
0.000118523
6.94457e-05
9.61399e-05
7.20201e-05
0.000117666
7.0081e-05
6.28838e-05
6.28858e-05
8.24365e-05
6.3252e-05
6.32532e-05
7.49352e-05
4.95921e-05
7.44647e-05
4.95912e-05
2.35946e-05
2.35911e-05
7.49374e-05
4.95905e-05
7.44678e-05
4.95896e-05
0.000138276
0.000138265
0.000138274
0.000135668
0.000135668
0.000135657
0.000135666
7.5732e-05
7.10614e-05
0.000115261
9.45961e-05
7.4864e-05
7.15766e-05
0.000114518
2.35923e-05
2.35888e-05
7.57304e-05
0.000115263
7.10549e-05
9.45901e-05
7.48625e-05
0.000114517
7.15801e-05
6.36332e-05
6.36352e-05
8.30835e-05
6.3881e-05
6.38827e-05
7.56675e-05
4.95802e-05
7.54035e-05
4.95723e-05
2.35818e-05
2.35778e-05
7.56673e-05
4.95786e-05
7.54032e-05
4.95708e-05
0.000134885
0.000134874
0.000134883
0.000132792
0.000132791
0.000132781
0.000132791
7.78891e-05
7.23107e-05
0.000112585
9.37232e-05
7.72534e-05
7.2655e-05
0.000112065
2.35796e-05
2.35755e-05
7.78876e-05
0.000112588
7.23076e-05
9.37182e-05
7.72521e-05
0.000112065
7.26569e-05
6.41603e-05
6.41597e-05
8.41075e-05
6.43005e-05
6.43e-05
7.59405e-05
4.95527e-05
7.58511e-05
4.95421e-05
2.35685e-05
2.35653e-05
7.59439e-05
4.95513e-05
7.58544e-05
4.95408e-05
0.000132159
0.000132148
0.000132158
0.000130381
0.000130382
0.000130372
0.000130381
7.91562e-05
7.31055e-05
0.000110791
9.32055e-05
7.88411e-05
7.32227e-05
0.000110364
2.3566e-05
2.35628e-05
7.91553e-05
0.000110793
7.31051e-05
9.32012e-05
7.88398e-05
0.000110365
7.32312e-05
6.44021e-05
6.44016e-05
8.47749e-05
6.44519e-05
6.44513e-05
7.6045e-05
4.95227e-05
7.60039e-05
4.95154e-05
2.35583e-05
2.35565e-05
7.60492e-05
4.95214e-05
7.60076e-05
4.95141e-05
0.000129827
0.000129816
0.000129825
0.000128374
0.000128374
0.000128371
0.00012838
7.95813e-05
7.32768e-05
0.000109015
9.2633e-05
7.95313e-05
7.33118e-05
0.000108672
2.35557e-05
2.35539e-05
7.95809e-05
0.000109018
7.32863e-05
9.26288e-05
7.95306e-05
0.000108673
7.33196e-05
6.44622e-05
6.44621e-05
8.4918e-05
6.44712e-05
6.44709e-05
7.6034e-05
4.95042e-05
7.6023e-05
4.95008e-05
2.35522e-05
2.35518e-05
7.60398e-05
4.95029e-05
7.60306e-05
4.94995e-05
0.000128015
0.000127989
0.000127998
0.0001273
0.000127302
0.00012739
0.000127399
7.96871e-05
7.33107e-05
0.000107773
9.19806e-05
7.96591e-05
7.33191e-05
0.000107578
2.35496e-05
2.35493e-05
7.96907e-05
0.000107776
7.33174e-05
9.19775e-05
7.96616e-05
0.000107578
7.3329e-05
6.44473e-05
6.44475e-05
8.47334e-05
6.44505e-05
6.44509e-05
7.60021e-05
4.94957e-05
7.60023e-05
4.94946e-05
2.35494e-05
2.35498e-05
7.60048e-05
4.94944e-05
7.60092e-05
4.94933e-05
0.000127271
0.000127126
0.000127135
7.97211e-05
7.33089e-05
0.000107299
9.19316e-05
7.97151e-05
7.33069e-05
0.000107294
2.35469e-05
0.000107318
7.33144e-05
7.9721e-05
6.44342e-05
6.44336e-05
0.000234867
0.000233564
0.000233565
2.32581e-05
0.000214158
2.3257e-05
0.000214161
0.000234435
5.13442e-05
5.13277e-05
0.000229989
0.00022999
0.000235117
0.000234798
0.000234702
0.000234727
0.000235117
0.000234798
0.000234702
0.000234727
0.000234476
4.02622e-05
0.000218811
0.000147941
0.000234476
4.02618e-05
0.000218811
0.000147948
0.00023389
0.000234475
9.97651e-05
0.000234271
0.000233358
0.000234597
0.000228487
0.00023389
0.000234474
9.97558e-05
0.000234271
0.000233358
0.000234597
0.000228486
0.000234867
0.000233565
0.000233565
2.32578e-05
0.000214166
0.000234435
5.13382e-05
5.13294e-05
0.000229988
0.00022999
2.32577e-05
0.000214169
0.000235117
0.000234798
0.000234702
0.000234727
0.000235117
0.000234798
0.000234727
0.000234702
0.000234476
4.02591e-05
0.000218812
0.000147917
0.00023389
0.000234474
9.97439e-05
0.00023427
0.000233358
0.000234597
0.000228484
0.000234476
4.02586e-05
0.000218812
0.000147933
0.00023389
0.000234474
0.000234271
9.97512e-05
0.000234597
0.000233358
0.000228486
0.00023473
0.000234746
0.000234729
0.000234729
0.00023473
0.000234746
0.000234729
0.000234729
0.00023473
0.000234746
0.000234729
0.000234729
0.000234591
0.000234574
0.000234252
0.000234252
0.000234592
0.000234592
0.000234252
0.000234591
0.000234574
0.000234252
0.000234252
0.000234592
0.000234592
0.000234252
0.000234591
0.000234574
0.000234252
0.000234252
0.000234592
0.000234592
0.000234252
0.000234591
0.000234574
0.000234253
0.000234252
0.000234592
0.000234592
0.000234252
0.000235117
0.000234798
0.000234727
0.000234702
0.00023389
0.000234474
9.97464e-05
0.00023427
0.000233358
0.000234597
0.000228485
0.000234476
4.02598e-05
0.000218814
0.000147933
0.00023389
0.000234475
0.000234271
9.97612e-05
0.000234597
0.000233358
0.000228486
0.000234476
4.02594e-05
0.000218813
0.000147941
0.000234867
0.000233566
0.000233566
2.3257e-05
0.000214162
0.000234435
5.13287e-05
5.1335e-05
0.00022999
0.000229992
2.32574e-05
0.00021417
0.000235117
0.000234798
0.000234727
0.000234702
0.000233889
0.000234475
0.00023427
9.97557e-05
0.000234596
0.000233359
0.000228486
0.000233889
0.000234474
0.00023427
9.97452e-05
0.000234597
0.000233358
0.000228484
0.000234476
4.02589e-05
0.000218815
0.00014792
0.000234476
4.02587e-05
0.00021881
0.000147906
0.000234435
5.13388e-05
5.13266e-05
0.000229991
0.000229991
2.32575e-05
0.000214169
2.3257e-05
0.000214163
2.16823e-05
2.28335e-05
2.1681e-05
2.28319e-05
4.78168e-05
4.7803e-05
0.000231346
4.38955e-05
4.38824e-05
2.44818e-05
2.33067e-05
2.44802e-05
2.33055e-05
0.000229665
4.00102e-05
3.99988e-05
4.30245e-05
4.30082e-05
0.000104573
3.87359e-05
0.000129241
3.98205e-05
0.000206175
9.34726e-05
0.000233969
0.000231986
0.000222629
8.7104e-05
0.000233611
0.000206177
9.34564e-05
0.000233969
0.000231982
0.000222626
8.7092e-05
0.000233611
9.83231e-05
4.19588e-05
4.03741e-05
8.55348e-05
9.83154e-05
4.19573e-05
4.03731e-05
8.55364e-05
0.000200027
0.000230748
8.08088e-05
0.000232682
8.55621e-05
0.000233189
0.000185571
0.000200026
0.000230744
8.08005e-05
0.000232682
8.55443e-05
0.000233189
0.000185574
4.78056e-05
4.78161e-05
0.000231346
4.38878e-05
4.38874e-05
2.1682e-05
2.28336e-05
2.44809e-05
2.33061e-05
0.000229665
4.00041e-05
4e-05
4.30106e-05
4.30226e-05
2.44821e-05
2.33068e-05
0.000206165
9.3451e-05
0.000233969
0.000231983
0.000222629
8.70867e-05
0.000233611
0.000104554
3.87322e-05
0.00012927
3.98184e-05
0.000206166
0.000233969
9.34551e-05
0.000231982
0.000222633
0.000233611
8.70847e-05
9.83192e-05
4.19551e-05
4.03706e-05
8.55301e-05
0.000200025
0.000230746
8.07951e-05
0.000232682
8.55428e-05
0.000233189
0.00018557
9.83203e-05
4.19543e-05
4.03698e-05
8.55279e-05
0.000200025
0.000230743
0.000232682
8.07904e-05
0.000233188
8.55432e-05
0.000185566
0.00010456
3.87332e-05
0.00012926
3.98213e-05
0.000206171
0.000233969
9.34639e-05
0.000231985
0.000222639
0.000233611
8.71011e-05
0.000104558
3.87339e-05
0.00012928
3.98194e-05
0.000200028
0.00023075
8.08042e-05
0.000232683
8.55577e-05
0.000233189
0.000185573
9.83205e-05
4.19575e-05
4.03716e-05
8.55308e-05
0.000200028
0.000230748
0.000232682
8.08085e-05
0.000233189
8.5555e-05
0.000185572
9.83261e-05
4.19561e-05
4.03721e-05
8.55319e-05
4.78056e-05
4.78113e-05
0.000231345
4.3879e-05
4.38976e-05
2.16814e-05
2.28325e-05
2.44798e-05
2.33045e-05
0.000229665
3.99938e-05
4.00115e-05
4.30126e-05
4.30173e-05
2.44809e-05
2.33061e-05
0.000206162
0.000233969
9.34499e-05
0.000231983
0.000222638
0.000233611
8.70896e-05
0.000104539
3.8733e-05
0.000129287
3.98196e-05
0.000104535
3.87324e-05
0.000129273
3.98185e-05
0.000200026
0.00023075
0.000232682
8.08085e-05
0.000233189
8.55536e-05
0.000185569
0.000200027
0.000230746
0.000232682
8.07995e-05
0.000233189
8.55418e-05
0.000185568
9.83349e-05
4.19557e-05
4.03717e-05
8.55276e-05
9.83338e-05
4.1955e-05
4.03703e-05
8.55273e-05
2.16818e-05
2.28325e-05
2.16809e-05
2.28319e-05
0.000229665
4.00119e-05
4e-05
4.3021e-05
4.30071e-05
2.4481e-05
2.33063e-05
2.44801e-05
2.33056e-05
2.47761e-05
2.54648e-05
2.47744e-05
2.5463e-05
3.91117e-05
3.90945e-05
0.000219599
3.65032e-05
3.64945e-05
2.59547e-05
2.56197e-05
2.59532e-05
2.56179e-05
0.000216772
3.37765e-05
3.3769e-05
3.56669e-05
3.56499e-05
7.25228e-05
4.24297e-05
8.13696e-05
4.37588e-05
0.000167419
7.94647e-05
0.000232079
0.000226085
0.000180148
7.45479e-05
0.000231374
0.000167422
7.94492e-05
0.000232079
0.00022608
0.00018015
7.45416e-05
0.000231373
6.95758e-05
4.52347e-05
4.41481e-05
6.31795e-05
6.9578e-05
4.52343e-05
4.41468e-05
6.31823e-05
0.000162805
0.000224256
6.87247e-05
0.00022965
7.3215e-05
0.000230563
0.00015181
0.000162808
0.000224251
6.872e-05
0.000229649
7.3199e-05
0.000230563
0.000151813
3.90976e-05
3.91112e-05
0.000219601
3.64996e-05
3.64936e-05
2.47761e-05
2.54649e-05
2.59542e-05
2.56189e-05
0.000216773
3.37729e-05
3.37716e-05
3.56533e-05
3.56636e-05
2.59551e-05
2.56196e-05
0.000167418
7.94467e-05
0.000232079
0.000226084
0.000180142
7.45387e-05
0.000231373
7.25084e-05
4.2426e-05
8.13621e-05
4.37554e-05
0.000167415
0.000232078
7.94489e-05
0.000226078
0.00018014
0.000231373
7.453e-05
6.95796e-05
4.52317e-05
4.41447e-05
6.31793e-05
0.000162799
0.000224255
6.87169e-05
0.000229649
7.31981e-05
0.000230564
0.00015181
6.95787e-05
4.52305e-05
4.41426e-05
6.31765e-05
0.000162796
0.000224248
0.000229648
6.87112e-05
0.000230562
7.31966e-05
0.000151805
7.25156e-05
4.24289e-05
8.13703e-05
4.37588e-05
0.000167418
0.000232079
7.94579e-05
0.000226084
0.000180147
0.000231373
7.45478e-05
7.25186e-05
4.24286e-05
8.13644e-05
4.37571e-05
0.000162808
0.000224261
6.87256e-05
0.000229651
7.32124e-05
0.000230564
0.000151811
6.95803e-05
4.52341e-05
4.41461e-05
6.31796e-05
0.000162805
0.000224255