/*--------------------------------*- C++ -*----------------------------------*\
| =========                 |                                                 |
| \\      /  F ield         | OpenFOAM: The Open Source CFD Toolbox           |
|  \\    /   O peration     | Version:  v1912                                 |
|   \\  /    A nd           | Website:  www.openfoam.com                      |
|    \\/     M anipulation  |                                                 |
\*---------------------------------------------------------------------------*/
FoamFile
{
    version     2.0;
    format      ascii;
    class       volScalarField;
    location    "120";
    object      p;
}
// * * * * * * * * * * * * * * * * * * * * * * * * * * * * * * * * * * * * * //

dimensions      [0 2 -2 0 0 0 0];


internalField   nonuniform List<scalar> 
57100
(
0.00358175
0.00358203
0.00358203
0.00358493
0.00352538
0.0035261
0.0035261
0.00352926
0.00347504
0.00347503
0.00347503
0.00347774
0.00342267
0.00342268
0.00342268
0.00342538
0.00337134
0.00337134
0.00337134
0.003374
0.00332137
0.00332138
0.00332138
0.00332399
0.00327284
0.00327287
0.00327287
0.00327544
0.00322561
0.00322565
0.00322565
0.00322819
0.00317949
0.00317953
0.00317953
0.00318204
0.00313426
0.00313431
0.00313431
0.00313679
0.00308976
0.00308981
0.00308981
0.00309227
0.00304586
0.00304591
0.00304591
0.00304834
0.00300248
0.00300252
0.00300252
0.00300493
0.00295956
0.00295961
0.00295961
0.00296201
0.00291707
0.00291711
0.00291711
0.00291951
0.002875
0.00287503
0.00287503
0.00287742
0.00283331
0.00283333
0.00283333
0.00283571
0.00279198
0.002792
0.00279199
0.00279437
0.00275098
0.00275099
0.00275099
0.00275336
0.0027103
0.0027103
0.0027103
0.00271267
0.00266991
0.00266991
0.00266991
0.00267227
0.00262979
0.00262979
0.00262979
0.00263214
0.00258996
0.00258996
0.00258996
0.0025923
0.00255047
0.00255046
0.00255045
0.00255278
0.00251146
0.00251141
0.00251141
0.00251371
0.00247302
0.00247295
0.00247295
0.0024752
0.0024353
0.00243523
0.00243523
0.00243742
0.00239831
0.00239824
0.00239824
0.00240038
0.00236187
0.00236181
0.00236181
0.00236392
0.00232577
0.00232571
0.00232571
0.00232781
0.00359497
0.00359524
0.00359524
0.00359497
0.00359524
0.00359524
0.00359596
0.00359596
0.00359596
0.00359596
0.00359524
0.00359525
0.00359497
0.00359525
0.00359525
0.00359497
0.00358493
0.00353597
0.00358203
0.00358203
0.00353796
0.00353796
0.00358493
0.00353597
0.00358203
0.00358203
0.00353796
0.00353796
0.00358203
0.00353796
0.00353796
0.00358493
0.00353597
0.00358204
0.00353796
0.00353796
0.00353597
0.00352926
0.00348487
0.0035261
0.0035261
0.00348814
0.00348814
0.00352926
0.00348488
0.0035261
0.0035261
0.00348814
0.00348814
0.0035261
0.00348814
0.00348814
0.00352926
0.00348487
0.0035261
0.00348814
0.00348814
0.00348488
0.00347774
0.00343247
0.00347503
0.00347503
0.00343569
0.00343569
0.00347774
0.00343247
0.00347503
0.00347503
0.00343569
0.00343569
0.00347503
0.00343569
0.00343569
0.00347773
0.00343247
0.00347503
0.00343569
0.00343569
0.00343247
0.00342538
0.0033809
0.00342268
0.00342268
0.00338406
0.00338406
0.00342538
0.0033809
0.00342268
0.00342268
0.00338406
0.00338406
0.00342268
0.00338406
0.00338406
0.00342538
0.0033809
0.00342268
0.00338406
0.00338406
0.0033809
0.003374
0.00333067
0.00337134
0.00337134
0.00333373
0.00333373
0.003374
0.00333067
0.00337134
0.00337134
0.00333373
0.00333373
0.00337134
0.00333373
0.00333373
0.003374
0.00333067
0.00337134
0.00333373
0.00333373
0.00333067
0.00332399
0.00328191
0.00332138
0.00332138
0.00328487
0.00328487
0.00332399
0.0032819
0.00332138
0.00332138
0.00328487
0.00328487
0.00332138
0.00328487
0.00328487
0.00332399
0.00328191
0.00332138
0.00328487
0.00328487
0.0032819
0.00327544
0.00323448
0.00327287
0.00327287
0.00323734
0.00323734
0.00327544
0.00323448
0.00327287
0.00327287
0.00323734
0.00323734
0.00327287
0.00323735
0.00323734
0.00327544
0.00323448
0.00327287
0.00323735
0.00323735
0.00323448
0.0032282
0.00318818
0.00322565
0.00322565
0.00319097
0.00319097
0.00322819
0.00318818
0.00322565
0.00322565
0.00319097
0.00319097
0.00322565
0.00319097
0.00319097
0.00322819
0.00318818
0.00322565
0.00319097
0.00319097
0.00318818
0.00318204
0.0031428
0.00317953
0.00317953
0.00314554
0.00314554
0.00318204
0.0031428
0.00317953
0.00317953
0.00314554
0.00314554
0.00317953
0.00314554
0.00314554
0.00318204
0.0031428
0.00317953
0.00314554
0.00314554
0.0031428
0.00313679
0.00309818
0.00313431
0.00313431
0.00310088
0.00310088
0.00313679
0.00309818
0.00313431
0.00313431
0.00310088
0.00310088
0.00313431
0.00310088
0.00310088
0.00313679
0.00309818
0.00313431
0.00310088
0.00310088
0.00309818
0.00309227
0.00305417
0.00308981
0.00308981
0.00305683
0.00305684
0.00309227
0.00305416
0.00308981
0.00308981
0.00305683
0.00305684
0.00308981
0.00305684
0.00305684
0.00309227
0.00305416
0.00308981
0.00305684
0.00305684
0.00305416
0.00304834
0.00301067
0.00304591
0.00304591
0.00301333
0.00301333
0.00304834
0.00301067
0.00304591
0.00304591
0.00301332
0.00301333
0.00304591
0.00301333
0.00301333
0.00304834
0.00301067
0.00304591
0.00301333
0.00301333
0.00301067
0.00300493
0.00296769
0.00300252
0.00300253
0.00297029
0.0029703
0.00300493
0.00296769
0.00300252
0.00300253
0.0029703
0.00297028
0.00300253
0.0029703
0.00297029
0.00300493
0.00296769
0.00300252
0.0029703
0.00297029
0.00296769
0.00296201
0.00292514
0.0029596
0.00295961
0.00292769
0.00292769
0.00296201
0.00292514
0.00295961
0.0029596
0.00292769
0.00292769
0.0029596
0.0029277
0.00292769
0.00296201
0.00292513
0.00295961
0.00292769
0.0029277
0.00292514
0.00291951
0.00288299
0.00291711
0.00291711
0.00288551
0.00288551
0.00291951
0.00288299
0.00291711
0.00291711
0.00288551
0.00288551
0.00291711
0.00288551
0.00288551
0.00291951
0.00288299
0.00291711
0.00288551
0.00288551
0.00288299
0.00287742
0.00284123
0.00287502
0.00287502
0.00284372
0.00284372
0.00287742
0.00284123
0.00287502
0.00287502
0.00284372
0.00284372
0.00287503
0.00284372
0.00284372
0.00287742
0.00284123
0.00287503
0.00284372
0.00284372
0.00284123
0.00283571
0.00279984
0.00283333
0.00283333
0.0028023
0.0028023
0.00283572
0.00279984
0.00283333
0.00283333
0.0028023
0.0028023
0.00283333
0.0028023
0.0028023
0.00283571
0.00279984
0.00283333
0.0028023
0.0028023
0.00279984
0.00279437
0.00275879
0.00279199
0.00279199
0.00276121
0.00276121
0.00279437
0.00275879
0.00279199
0.00279199
0.00276121
0.00276121
0.00279199
0.00276121
0.00276121
0.00279437
0.00275879
0.002792
0.00276121
0.00276121
0.00275879
0.00275336
0.00271806
0.00275099
0.00275099
0.00272045
0.00272045
0.00275336
0.00271806
0.00275099
0.00275099
0.00272045
0.00272045
0.00275099
0.00272045
0.00272045
0.00275336
0.00271806
0.00275099
0.00272045
0.00272045
0.00271806
0.00271267
0.00267762
0.0027103
0.0027103
0.00267998
0.00267998
0.00271267
0.00267762
0.0027103
0.0027103
0.00267998
0.00267998
0.0027103
0.00267998
0.00267998
0.00271267
0.00267762
0.00271031
0.00267998
0.00267998
0.00267762
0.00267227
0.00263746
0.00266991
0.00266991
0.00263979
0.00263979
0.00267227
0.00263746
0.00266991
0.00266991
0.00263979
0.00263979
0.00266991
0.00263979
0.00263979
0.00267227
0.00263746
0.00266991
0.00263979
0.00263979
0.00263746
0.00263214
0.00259759
0.00262979
0.00262979
0.00259989
0.00259989
0.00263214
0.00259759
0.00262979
0.00262979
0.00259989
0.00259989
0.00262979
0.00259989
0.00259989
0.00263214
0.00259759
0.00262979
0.00259989
0.00259989
0.00259759
0.0025923
0.00255802
0.00258996
0.00258996
0.00256029
0.00256029
0.0025923
0.00255802
0.00258996
0.00258996
0.00256029
0.00256029
0.00258996
0.00256029
0.00256029
0.0025923
0.00255802
0.00258996
0.00256029
0.00256029
0.00255802
0.00255278
0.00251889
0.00255046
0.00255045
0.00252113
0.00252113
0.00255278
0.00251889
0.00255046
0.00255045
0.00252113
0.00252113
0.00255046
0.00252113
0.00252113
0.00255278
0.00251889
0.00255045
0.00252113
0.00252113
0.00251889
0.00251371
0.0024803
0.00251142
0.00251141
0.0024825
0.0024825
0.00251371
0.0024803
0.00251141
0.00251141
0.0024825
0.0024825
0.00251142
0.0024825
0.0024825
0.00251371
0.0024803
0.00251141
0.0024825
0.0024825
0.0024803
0.0024752
0.00244242
0.00247295
0.00247295
0.00244459
0.00244459
0.0024752
0.00244242
0.00247295
0.00247295
0.00244459
0.00244459
0.00247295
0.00244459
0.00244459
0.0024752
0.00244242
0.00247295
0.00244459
0.00244459
0.00244242
0.00243742
0.0024053
0.00243523
0.00243523
0.00240743
0.00240743
0.00243742
0.0024053
0.00243523
0.00243523
0.00240743
0.00240743
0.00243523
0.00240743
0.00240743
0.00243742
0.0024053
0.00243523
0.00240743
0.00240743
0.0024053
0.00240038
0.00236877
0.00239824
0.00239824
0.00237088
0.00237088
0.00240038
0.00236877
0.00239824
0.00239824
0.00237088
0.00237088
0.00239824
0.00237088
0.00237088
0.00240038
0.00236877
0.00239824
0.00237088
0.00237088
0.00236877
0.00236392
0.00233263
0.00236181
0.00236181
0.00233472
0.00233472
0.00236392
0.00233263
0.00236181
0.00236181
0.00233472
0.00233472
0.00236181
0.00233472
0.00233472
0.00236392
0.00233263
0.00236181
0.00233472
0.00233472
0.00233263
0.00232781
0.00232571
0.00232571
0.00232781
0.00232571
0.00232571
0.00232571
0.00232781
0.00232571
0.0036032
0.00361277
0.00360767
0.00360768
0.0036299
0.00361673
0.00364499
0.00361086
0.0036299
0.00361674
0.00361086
0.00364499
0.00362131
0.00364875
0.00364875
0.00355822
0.00358385
0.00358636
0.00354806
0.00356241
0.00354857
0.0035582
0.00358384
0.00358636
0.00354804
0.00358175
0.00358175
0.00358175
0.00353739
0.00353739
0.00353739
0.00353739
0.00355634
0.00358332
0.00358192
0.00356508
0.00358578
0.00355298
0.00356589
0.00356249
0.00354858
0.00355634
0.00358193
0.00358333
0.00356508
0.00358578
0.00356589
0.00355298
0.00358694
0.00358693
0.00355924
0.00355364
0.00355364
0.00351183
0.00353186
0.00353258
0.00351033
0.00353059
0.00350982
0.00351182
0.00353185
0.00353258
0.00351032
0.00352538
0.00352538
0.00352538
0.00348818
0.00348818
0.00348818
0.00348818
0.00351041
0.0035314
0.0035258
0.00351386
0.00353007
0.00351067
0.00351369
0.00353059
0.00350981
0.00351041
0.0035258
0.00353139
0.00351386
0.00353006
0.00351369
0.00351067
0.00353267
0.00353267
0.00351074
0.00351123
0.00351124
0.00345946
0.00347824
0.00347929
0.00345845
0.00347787
0.00345816
0.00345946
0.00347824
0.00347929
0.00345845
0.00347504
0.00347504
0.00347504
0.00343567
0.00343567
0.00343567
0.00343567
0.00345857
0.00347853
0.00347501
0.00346188
0.00347811
0.00345883
0.00346185
0.00347787
0.00345816
0.00345856
0.00347501
0.00347853
0.00346188
0.00347811
0.00346185
0.00345883
0.00347884
0.00347884
0.00345866
0.00345897
0.00345897
0.0034069
0.00342555
0.00342641
0.00340614
0.00342534
0.00340595
0.0034069
0.00342555
0.00342641
0.00340614
0.00342267
0.00342267
0.00342267
0.00338407
0.00338407
0.00338406
0.00338406
0.00340639
0.00342591
0.00342266
0.00340973
0.0034257
0.00340653
0.00340972
0.00342534
0.00340595
0.00340639
0.00342266
0.00342591
0.00340973
0.0034257
0.00340972
0.00340653
0.00342597
0.00342597
0.00340654
0.00340649
0.00340649
0.0033557
0.00337407
0.00337468
0.00335516
0.00337391
0.00335501
0.0033557
0.00337407
0.00337468
0.00335516
0.00337134
0.00337134
0.00337134
0.00333372
0.00333372
0.00333372
0.00333372
0.00335543
0.00337439
0.00337132
0.00335871
0.00337426
0.00335552
0.00335869
0.00337391
0.00335501
0.00335543
0.00337132
0.00337439
0.00335871
0.00337426
0.00335869
0.00335551
0.00337438
0.00337438
0.0033556
0.00335543
0.00335543
0.00330606
0.00332402
0.00332446
0.00330568
0.00332389
0.00330554
0.00330606
0.00332402
0.00332446
0.00330567
0.00332137
0.00332137
0.00332137
0.00328484
0.00328484
0.00328484
0.00328484
0.00330594
0.0033243
0.00332135
0.00330912
0.00332421
0.003306
0.00330909
0.00332389
0.00330555
0.00330594
0.00332135
0.0033243
0.00330912
0.00332421
0.00330909
0.003306
0.00332428
0.00332428
0.00330611
0.00330591
0.00330591
0.00325789
0.00327545
0.00327576
0.00325763
0.00327533
0.00325751
0.00325789
0.00327545
0.00327576
0.00325763
0.00327284
0.00327284
0.00327284
0.00323731
0.00323731
0.00323731
0.00323731
0.00325787
0.0032757
0.00327283
0.00326095
0.00327562
0.00325792
0.00326091
0.00327533
0.00325751
0.00325787
0.00327283
0.0032757
0.00326097
0.00327562
0.00326091
0.00325792
0.00327568
0.00327568
0.00325802
0.00325783
0.00325783
0.00321101
0.0032282
0.00322842
0.00321081
0.00322809
0.00321071
0.00321101
0.0032282
0.00322842
0.00321082
0.00322561
0.00322561
0.00322561
0.00319093
0.00319093
0.00319093
0.00319093
0.00321104
0.00322843
0.00322561
0.00321403
0.00322835
0.0032111
0.00321398
0.00322809
0.00321071
0.00321104
0.00322561
0.00322843
0.00321403
0.00322835
0.00321398
0.0032111
0.00322841
0.00322841
0.0032112
0.00321101
0.00321101
0.00316518
0.00318205
0.00318222
0.00316503
0.00318196
0.00316493
0.00316518
0.00318205
0.00318222
0.00316503
0.00317949
0.00317949
0.00317949
0.0031455
0.0031455
0.0031455
0.0031455
0.00316525
0.00318227
0.00317949
0.00316815
0.0031822
0.0031653
0.00316811
0.00318196
0.00316493
0.00316525
0.00317949
0.00318227
0.00316815
0.0031822
0.00316811
0.0031653
0.00318225
0.00318225
0.00316539
0.00316521
0.00316521
0.0031202
0.0031368
0.00313694
0.00312007
0.00313671
0.00311998
0.0031202
0.0031368
0.00313694
0.00312007
0.00313426
0.00313426
0.00313426
0.00310083
0.00310083
0.00310083
0.00310083
0.0031203
0.00313701
0.00313427
0.00312313
0.00313695
0.00312034
0.00312308
0.00313671
0.00311998
0.0031203
0.00313427
0.00313701
0.00312313
0.00313695
0.00312308
0.00312034
0.00313699
0.00313699
0.00312041
0.00312024
0.00312024
0.0030759
0.00309228
0.00309241
0.00307578
0.00309219
0.00307569
0.0030759
0.00309228
0.00309241
0.00307578
0.00308976
0.00308976
0.00308976
0.00305679
0.00305679
0.00305679
0.00305679
0.00307602
0.00309248
0.00308977
0.00307879
0.00309243
0.00307605
0.00307875
0.00309219
0.00307569
0.00307602
0.00308977
0.00309248
0.00307879
0.00309243
0.00307875
0.00307605
0.00309245
0.00309245
0.0030761
0.00307594
0.00307594
0.00303218
0.00304835
0.00304848
0.00303205
0.00304827
0.00303197
0.00303218
0.00304835
0.00304848
0.00303205
0.00304586
0.00304586
0.00304586
0.00301328
0.00301328
0.00301328
0.00301328
0.00303231
0.00304855
0.00304587
0.00303502
0.00304852
0.00303232
0.00303498
0.00304827
0.00303197
0.00303231
0.00304588
0.00304855
0.00303502
0.00304852
0.00303498
0.00303232
0.00304851
0.00304851
0.00303235
0.0030322
0.0030322
0.00298894
0.00300494
0.00300506
0.00298882
0.00300486
0.00298874
0.00298894
0.00300494
0.00300506
0.00298881
0.00300248
0.00300248
0.00300248
0.00297025
0.00297025
0.00297025
0.00297025
0.00298909
0.00300512
0.00300249
0.00299175
0.00300512
0.00298908
0.00299172
0.00300486
0.00298874
0.00298909
0.00300249
0.00300512
0.00299175
0.00300512
0.00299172
0.00298908
0.00300508
0.00300508
0.00298912
0.00298895
0.00298895
0.00294616
0.00296199
0.00296211
0.00294603
0.00296191
0.00294596
0.00294616
0.00296198
0.00296211
0.00294603
0.00295956
0.00295956
0.00295956
0.00292766
0.00292766
0.00292766
0.00292766
0.00294634
0.00296217
0.00295958
0.00294894
0.00296219
0.00294629
0.00294892
0.00296192
0.00294597
0.00294634
0.00295958
0.00296217
0.00294894
0.00296219
0.00294892
0.0029463
0.00296212
0.00296212
0.00294636
0.00294615
0.00294615
0.0029038
0.00291947
0.0029196
0.00290367
0.00291941
0.00290362
0.0029038
0.00291947
0.0029196
0.00290367
0.00291707
0.00291707
0.00291707
0.00288548
0.00288548
0.00288548
0.00288548
0.002904
0.00291965
0.0029171
0.00290655
0.00291969
0.00290394
0.00290654
0.00291941
0.00290362
0.002904
0.0029171
0.00291965
0.00290655
0.00291969
0.00290654
0.00290393
0.0029196
0.0029196
0.00290401
0.00290379
0.00290379
0.00286184
0.00287737
0.00287749
0.00286172
0.00287731
0.00286167
0.00286184
0.00287737
0.00287749
0.00286172
0.002875
0.002875
0.002875
0.0028437
0.0028437
0.0028437
0.0028437
0.00286207
0.00287754
0.00287502
0.00286457
0.00287761
0.00286197
0.00286457
0.00287732
0.00286167
0.00286207
0.00287502
0.00287754
0.00286457
0.00287761
0.00286457
0.00286197
0.00287748
0.00287748
0.00286206
0.00286182
0.00286182
0.00282026
0.00283565
0.00283577
0.00282014
0.00283561
0.0028201
0.00282026
0.00283565
0.00283577
0.00282014
0.00283331
0.00283331
0.00283331
0.00280228
0.00280228
0.00280228
0.00280228
0.0028205
0.00283581
0.00283333
0.00282296
0.0028359
0.00282039
0.00282297
0.00283561
0.0028201
0.0028205
0.00283333
0.00283581
0.00282296
0.0028359
0.00282297
0.00282038
0.00283576
0.00283576
0.00282049
0.00282023
0.00282023
0.00277903
0.0027943
0.00279441
0.00277892
0.00279426
0.00277888
0.00277903
0.0027943
0.00279441
0.00277892
0.00279198
0.00279198
0.00279198
0.0027612
0.0027612
0.0027612
0.0027612
0.00277929
0.00279444
0.002792
0.00278171
0.00279455
0.00277915
0.00278172
0.00279426
0.00277888
0.00277929
0.002792
0.00279444
0.00278171
0.00279455
0.00278172
0.00277915
0.00279439
0.00279439
0.00277928
0.002779
0.002779
0.00273813
0.00275329
0.00275339
0.00273802
0.00275325
0.00273799
0.00273813
0.00275329
0.00275339
0.00273802
0.00275098
0.00275098
0.00275098
0.00272044
0.00272044
0.00272044
0.00272044
0.0027384
0.00275342
0.002751
0.00274079
0.00275354
0.00273824
0.0027408
0.00275325
0.00273799
0.0027384
0.002751
0.00275341
0.00274079
0.00275354
0.0027408
0.00273824
0.00275337
0.00275337
0.00273839
0.0027381
0.0027381
0.00269753
0.00271258
0.00271267
0.00269743
0.00271254
0.00269741
0.00269753
0.00271258
0.00271268
0.00269743
0.0027103
0.0027103
0.0027103
0.00267998
0.00267998
0.00267998
0.00267998
0.0026978
0.0027127
0.00271032
0.00270018
0.00271283
0.00269764
0.00270019
0.00271255
0.0026974
0.0026978
0.00271032
0.0027127
0.00270018
0.00271283
0.00270019
0.00269764
0.00271266
0.00271266
0.0026978
0.0026975
0.0026975
0.00265722
0.00267218
0.00267226
0.00265713
0.00267214
0.00265711
0.00265722
0.00267218
0.00267226
0.00265713
0.00266991
0.00266991
0.00266991
0.0026398
0.0026398
0.0026398
0.0026398
0.00265749
0.00267228
0.00266992
0.00265985
0.00267241
0.00265733
0.00265987
0.00267215
0.00265711
0.00265749
0.00266992
0.00267228
0.00265985
0.00267241
0.00265987
0.00265732
0.00267225
0.00267225
0.0026575
0.00265719
0.00265719
0.00261719
0.00263205
0.00263213
0.00261711
0.00263202
0.00261709
0.00261719
0.00263205
0.00263213
0.00261711
0.00262979
0.00262979
0.00262979
0.0025999
0.0025999
0.0025999
0.0025999
0.00261746
0.00263214
0.0026298
0.00261981
0.00263226
0.00261729
0.00261982
0.00263202
0.00261708
0.00261746
0.0026298
0.00263214
0.00261981
0.00263226
0.00261982
0.00261729
0.00263211
0.00263211
0.00261749
0.00261716
0.00261716
0.00257744
0.0025922
0.00259227
0.00257737
0.00259218
0.00257735
0.00257744
0.0025922
0.00259227
0.00257737
0.00258996
0.00258996
0.00258996
0.0025603
0.0025603
0.0025603
0.0025603
0.0025777
0.00259228
0.00258997
0.00258005
0.0025924
0.00257753
0.00258006
0.00259218
0.00257735
0.00257769
0.00258997
0.00259228
0.00258005
0.00259239
0.00258006
0.00257753
0.00259225
0.00259225
0.00257775
0.00257741
0.00257741
0.00253808
0.00255268
0.00255274
0.00253801
0.00255266
0.002538
0.00253808
0.00255268
0.00255274
0.00253801
0.00255047
0.00255047
0.00255047
0.00252117
0.00252117
0.00252117
0.00252117
0.00253831
0.00255274
0.00255048
0.00254065
0.00255284
0.00253815
0.00254067
0.00255266
0.002538
0.00253831
0.00255048
0.00255274
0.00254065
0.00255284
0.00254067
0.00253815
0.00255272
0.00255272
0.00253839
0.00253805
0.00253805
0.00249922
0.00251364
0.00251369
0.00249917
0.00251363
0.00249916
0.00249922
0.00251364
0.00251369
0.00249917
0.00251146
0.00251146
0.00251146
0.00248256
0.00248256
0.00248256
0.00248256
0.00249941
0.00251367
0.00251143
0.00250174
0.00251376
0.00249928
0.00250176
0.00251363
0.00249916
0.00249941
0.00251143
0.00251367
0.00250174
0.00251376
0.00250176
0.00249928
0.00251367
0.00251367
0.00249952
0.00249919
0.00249919
0.002461
0.00247517
0.0024752
0.00246097
0.00247516
0.00246096
0.002461
0.00247517
0.0024752
0.00246097
0.00247302
0.00247302
0.00247302
0.00244466
0.00244466
0.00244466
0.00244466
0.00246114
0.00247518
0.00247297
0.00246345
0.00247523
0.00246105
0.00246346
0.00247516
0.00246096
0.00246114
0.00247297
0.00247518
0.00246345
0.00247523
0.00246346
0.00246105
0.00247519
0.00247519
0.00246126
0.00246098
0.00246098
0.00242358
0.00243747
0.00243748
0.00242357
0.00243746
0.00242356
0.00242358
0.00243747
0.00243748
0.00242357
0.0024353
0.0024353
0.0024353
0.00240749
0.00240749
0.00240749
0.00240749
0.00242369
0.00243745
0.00243525
0.00242592
0.00243747
0.00242362
0.00242594
0.00243746
0.00242356
0.00242369
0.00243525
0.00243745
0.00242592
0.00243747
0.00242594
0.00242362
0.00243748
0.00243748
0.00242377
0.00242357
0.00242357
0.00238683
0.0024005
0.0024005
0.00238682
0.0024005
0.00238682
0.00238683
0.0024005
0.0024005
0.00238682
0.00239831
0.00239831
0.00239831
0.00237094
0.00237094
0.00237094
0.00237094
0.00238691
0.00240047
0.00239826
0.00238909
0.00240046
0.00238686
0.00238911
0.0024005
0.00238682
0.00238691
0.00239826
0.00240047
0.00238909
0.00240047
0.00238911
0.00238686
0.00240051
0.00240051
0.00238698
0.00238682
0.00238682
0.00235054
0.00236406
0.00236406
0.00235053
0.00236406
0.00235053
0.00235054
0.00236406
0.00236406
0.00235053
0.00236187
0.00236187
0.00236187
0.00233478
0.00233478
0.00233478
0.00233478
0.0023506
0.00236403
0.00236183
0.00235276
0.00236401
0.00235057
0.00235278
0.00236406
0.00235053
0.0023506
0.00236183
0.00236403
0.00235276
0.00236401
0.00235278
0.00235057
0.00236407
0.00236407
0.00235067
0.00235053
0.00235053
0.00231452
0.00232796
0.00232796
0.00231451
0.00232796
0.00231451
0.00231452
0.00232796
0.00232796
0.00231451
0.00232578
0.00232578
0.00232577
0.00231458
0.00232792
0.00232573
0.00231672
0.0023279
0.00231455
0.00231674
0.00232796
0.00232573
0.00232792
0.0023279
0.00232797
0.00232797
0.0036213
0.00364873
0.00364875
0.00361396
0.00364783
0.00361392
0.00364785
0.0036181
0.00360411
0.00360412
0.00364351
0.00364352
0.00362988
0.00361673
0.00364498
0.00361086
0.00362988
0.00361673
0.00364498
0.00361086
0.00363407
0.00360806
0.00364501
0.00359969
0.00363407
0.00360805
0.00364502
0.00359969
0.00362555
0.00361421
0.00359876
0.00359727
0.00364026
0.00360927
0.00359797
0.00362555
0.00361421
0.00359876
0.00359727
0.00364027
0.00360927
0.00359797
0.0036213
0.00364874
0.00364875
0.00361392
0.00364784
0.0036181
0.0036041
0.00360412
0.00364351
0.00364351
0.00361394
0.00364784
0.0036299
0.00361674
0.00364499
0.00361086
0.0036299
0.00361674
0.00361086
0.00364499
0.00363408
0.00360806
0.00364503
0.0035997
0.00362556
0.00361421
0.00359876
0.00359728
0.00364027
0.00360928
0.00359798
0.00363408
0.00360807
0.00364502
0.0035997
0.00362556
0.00361421
0.00359728
0.00359877
0.00360928
0.00364027
0.00359798
0.0036032
0.00361277
0.00360767
0.00360768
0.0036032
0.00361278
0.00360768
0.00360768
0.0036032
0.00361278
0.00360768
0.00360768
0.00360196
0.00361084
0.00359406
0.00359406
0.00360624
0.00360624
0.00359227
0.00360196
0.00361084
0.00359406
0.00359406
0.00360624
0.00360624
0.00359227
0.00360196
0.00361085
0.00359406
0.00359406
0.00360624
0.00360624
0.00359227
0.00360196
0.00361085
0.00359406
0.00359406
0.00360624
0.00360624
0.00359227
0.0036299
0.00361674
0.00361086
0.00364499
0.00362556
0.00361421
0.00359876
0.00359728
0.00364027
0.00360928
0.00359798
0.00363409
0.00360807
0.00364502
0.0035997
0.00362556
0.00361421
0.00359728
0.00359877
0.00360928
0.00364027
0.00359798
0.00363409
0.00360806
0.00364502
0.0035997
0.00362131
0.00364875
0.00364875
0.0036139
0.00364784
0.0036181
0.00360411
0.00360411
0.00364351
0.00364352
0.00361389
0.00364784
0.0036299
0.00361674
0.00361086
0.00364499
0.00362556
0.00361421
0.00359728
0.00359877
0.00360928
0.00364027
0.00359798
0.00362556
0.00361421
0.00359728
0.00359877
0.00360928
0.00364027
0.00359798
0.00363408
0.00360806
0.00364503
0.00359969
0.00363409
0.00360808
0.00364503
0.0035997
0.0036181
0.00360412
0.00360412
0.00364351
0.00364352
0.0036139
0.00364784
0.00361393
0.00364784
0.00356242
0.00354857
0.00356249
0.00354856
0.0035869
0.00358693
0.00355925
0.00355363
0.00355364
0.00353762
0.00355092
0.00353762
0.00355091
0.00355221
0.00353957
0.00353956
0.00355114
0.00355113
0.00355822
0.00358384
0.00358637
0.00354805
0.00355635
0.00358331
0.00358192
0.00356507
0.00358578
0.00355298
0.00356589
0.00355635
0.00358331
0.00358192
0.00356507
0.00358578
0.00355299
0.00356589
0.0035532
0.00353889
0.00354812
0.00353904
0.0035532
0.00353889
0.00354812
0.00353904
0.00355054
0.00355043
0.00353816
0.00353788
0.00354998
0.00355097
0.0035363
0.00355054
0.00355043
0.00353816
0.00353788
0.00354999
0.00355097
0.00353629
0.00358689
0.00358694
0.00355926
0.00355364
0.00355364
0.00356253
0.00354857
0.00353762
0.00355092
0.00355221
0.00353957
0.00353956
0.00355114
0.00355113
0.00353761
0.00355092
0.00355634
0.00358332
0.00358192
0.00356508
0.00358578
0.00355298
0.00356589
0.0035582
0.00358385
0.00358635
0.00354805
0.00355634
0.00358192
0.00358332
0.00356507
0.00358578
0.00356589
0.00355298
0.00355319
0.00353889
0.00354811
0.00353904
0.00355053
0.00355043
0.00353816
0.00353787
0.00354998
0.00355096
0.00353629
0.00355319
0.00353889
0.00354812
0.00353904
0.00355053
0.00355043
0.00353788
0.00353816
0.00355097
0.00354998
0.00353629
0.0035582
0.00358385
0.00358636
0.00354804
0.00355634
0.00358192
0.00358333
0.00356507
0.00358578
0.00356589
0.00355298
0.0035582
0.00358386
0.00358635
0.00354805
0.00355053
0.00355043
0.00353816
0.00353788
0.00354998
0.00355096
0.00353629
0.00355319
0.00353889
0.00354811
0.00353904
0.00355053
0.00355043
0.00353788
0.00353816
0.00355097
0.00354998
0.00353629
0.00355319
0.00353889
0.0035481
0.00353904
0.00358693
0.00358694
0.00355923
0.00355364
0.00355364
0.00356249
0.00354856
0.00353762
0.00355092
0.00355221
0.00353956
0.00353956
0.00355114
0.00355113
0.00353762
0.00355089
0.00355634
0.00358193
0.00358332
0.00356508
0.00358578
0.00356589
0.00355297
0.0035582
0.00358386
0.00358635
0.00354804
0.0035582
0.00358386
0.00358635
0.00354805
0.00355053
0.00355043
0.00353787
0.00353816
0.00355096
0.00354998
0.00353629
0.00355053
0.00355043
0.00353787
0.00353816
0.00355096
0.00354998
0.00353629
0.00355319
0.00353889
0.00354811
0.00353904
0.00355319
0.00353889
0.00354811
0.00353904
0.00356251
0.00354856
0.00356251
0.00354856
0.00355221
0.00353957
0.00353956
0.00355113
0.00355113
0.00353763
0.00355089
0.00353761
0.00355091
0.0035306
0.00350982
0.00353059
0.00350982
0.00353267
0.00353267
0.00351074
0.00351124
0.00351123
0.00348435
0.0035033
0.00348435
0.0035033
0.00350369
0.00348539
0.00348539
0.00350462
0.00350462
0.00351183
0.00353186
0.00353258
0.00351033
0.00351041
0.0035314
0.0035258
0.00351386
0.00353007
0.00351067
0.00351369
0.00351041
0.0035314
0.0035258
0.00351386
0.00353007
0.00351067
0.00351369
0.00350515
0.00348476
0.00350377
0.00348585
0.00350515
0.00348476
0.00350377
0.00348585
0.00350379
0.00350114
0.00348511
0.00348815
0.00350414
0.00350111
0.00348473
0.00350379
0.00350114
0.00348511
0.00348815
0.00350414
0.00350111
0.00348473
0.00353267
0.00353268
0.00351074
0.00351124
0.00351124
0.0035306
0.00350983
0.00348435
0.0035033
0.00350369
0.00348539
0.00348539
0.00350462
0.00350462
0.00348435
0.0035033
0.0035104
0.00353139
0.0035258
0.00351386
0.00353006
0.00351067
0.00351369
0.00351182
0.00353185
0.00353258
0.00351032
0.0035104
0.0035258
0.00353139
0.00351386
0.00353006
0.00351369
0.00351067
0.00350515
0.00348476
0.00350377
0.00348585
0.00350379
0.00350114
0.00348511
0.00348815
0.00350414
0.00350111
0.00348473
0.00350515
0.00348476
0.00350377
0.00348585
0.00350379
0.00350114
0.00348815
0.0034851
0.00350111
0.00350414
0.00348473
0.00351182
0.00353186
0.00353258
0.00351033
0.00351041
0.0035258
0.0035314
0.00351386
0.00353007
0.00351369
0.00351067
0.00351182
0.00353186
0.00353258
0.00351032
0.00350379
0.00350114
0.00348511
0.00348815
0.00350414
0.00350111
0.00348473
0.00350515
0.00348476
0.00350377
0.00348585
0.00350379
0.00350114
0.00348815
0.00348511
0.00350111
0.00350414
0.00348473
0.00350515
0.00348476
0.00350377
0.00348585
0.00353267
0.00353267
0.00351074
0.00351123
0.00351124
0.0035306
0.00350982
0.00348435
0.0035033
0.00350368
0.00348539
0.00348539
0.00350461
0.00350462
0.00348435
0.0035033
0.00351041
0.0035258
0.00353139
0.00351386
0.00353006
0.00351369
0.00351067
0.00351183
0.00353185
0.00353258
0.00351032
0.00351183
0.00353185
0.00353258
0.00351032
0.00350379
0.00350114
0.00348815
0.00348511
0.00350111
0.00350414
0.00348473
0.00350379
0.00350114
0.00348815
0.0034851
0.00350111
0.00350414
0.00348473
0.00350515
0.00348476
0.00350377
0.00348585
0.00350515
0.00348476
0.00350377
0.00348585
0.0035306
0.00350982
0.00353059
0.00350982
0.00350369
0.00348539
0.00348539
0.00350462
0.00350462
0.00348435
0.0035033
0.00348435
0.0035033
0.00347787
0.00345816
0.00347787
0.00345816
0.00347884
0.00347884
0.00345866
0.00345897
0.00345897
0.00343189
0.00345152
0.00343189
0.00345152
0.0034515
0.00343254
0.00343254
0.00345229
0.00345229
0.00345946
0.00347824
0.00347929
0.00345845
0.00345857
0.00347853
0.00347501
0.00346188
0.00347811
0.00345883
0.00346185
0.00345857
0.00347853
0.00347501
0.00346189
0.00347811
0.00345883
0.00346185
0.00345278
0.00343211
0.00345179
0.00343301
0.00345278
0.00343211
0.00345179
0.00343301
0.00345186
0.00344876
0.00343251
0.00343566
0.00345214
0.00344872
0.00343234
0.00345186
0.00344876
0.00343252
0.00343566
0.00345214
0.00344872
0.00343234
0.00347884
0.00347884
0.00345866
0.00345897
0.00345897
0.00347787
0.00345816
0.00343189
0.00345152
0.0034515
0.00343254
0.00343254
0.00345229
0.00345229
0.00343189
0.00345152
0.00345856
0.00347853
0.00347501
0.00346188
0.00347811
0.00345883
0.00346185
0.00345946
0.00347824
0.00347929
0.00345845
0.00345856
0.00347501
0.00347853
0.00346189
0.00347811
0.00346185
0.00345883
0.00345278
0.00343211
0.00345179
0.00343301
0.00345186
0.00344876
0.00343251
0.00343566
0.00345214
0.00344872
0.00343234
0.00345278
0.00343211
0.00345179
0.00343301
0.00345186
0.00344876
0.00343566
0.00343251
0.00344872
0.00345214
0.00343234
0.00345946
0.00347824
0.00347929
0.00345845
0.00345857
0.00347501
0.00347853
0.00346188
0.00347811
0.00346185
0.00345883
0.00345946
0.00347824
0.00347929
0.00345845
0.00345186
0.00344876
0.00343252
0.00343566
0.00345214
0.00344872
0.00343234
0.00345278
0.00343211
0.00345179
0.00343301
0.00345186
0.00344876
0.00343566
0.00343251
0.00344872
0.00345214
0.00343234
0.00345278