/*--------------------------------*- C++ -*----------------------------------*\
| =========                 |                                                 |
| \\      /  F ield         | OpenFOAM: The Open Source CFD Toolbox           |
|  \\    /   O peration     | Version:  v1912                                 |
|   \\  /    A nd           | Website:  www.openfoam.com                      |
|    \\/     M anipulation  |                                                 |
\*---------------------------------------------------------------------------*/
FoamFile
{
    version     2.0;
    format      ascii;
    class       surfaceScalarField;
    location    "120";
    object      phi;
}
// * * * * * * * * * * * * * * * * * * * * * * * * * * * * * * * * * * * * * //

dimensions      [0 3 -1 0 0 0 0];
oriented        oriented;


internalField   nonuniform List<scalar> 
165607
(
-0.00104215
-1.46069e-05
-1.45031e-05
9.36394e-06
9.19403e-06
0.00105271
-0.000261455
-5.65766e-06
1.44838e-05
6.88151e-06
0.00105938
-4.56949e-06
-1.60011e-06
-2.19711e-06
-2.55182e-06
-6.6503e-06
-7.05753e-06
-3.16975e-06
-0.000263289
-0.000259726
-0.000262822
-0.000261432
-5.66267e-06
1.45128e-05
6.97119e-06
0.00105917
-4.57467e-06
-1.61025e-06
-2.20473e-06
-2.5562e-06
-6.64437e-06
-7.05372e-06
-3.17185e-06
-0.000259698
-0.000263261
-0.000262786
-0.000260567
5.63326e-06
5.67326e-06
-4.87208e-06
-4.86616e-06
0.000258998
-1.62184e-06
-1.62356e-06
-0.00106075
8.95285e-07
8.95909e-07
0.0010622
-0.00106267
-1.60944e-06
1.61741e-06
7.68085e-07
0.00106396
-6.67835e-07
8.21372e-07
-1.33638e-07
3.94713e-07
-8.00153e-07
-1.4183e-06
-2.59006e-07
-0.00106235
-1.60434e-06
1.62807e-06
7.63385e-07
0.00106363
-6.67807e-07
8.15854e-07
-1.33682e-07
3.92088e-07
-8.027e-07
-1.41795e-06
-2.56515e-07
-0.000261557
1.64221e-06
1.60449e-06
-6.90621e-07
-6.93786e-07
0.000259695
-1.36562e-06
-1.36724e-06
-0.00106641
6.89646e-07
6.90347e-07
0.00106777
-0.00106791
-1.56889e-06
1.37186e-06
6.62297e-07
0.00106926
-6.38752e-07
8.73023e-07
-9.20177e-08
4.43964e-07
-7.92339e-07
-1.38984e-06
-2.197e-07
-0.00106758
-1.5636e-06
1.36668e-06
6.67632e-07
0.00106893
-6.38747e-07
8.67581e-07
-9.19875e-08
4.43909e-07
-7.92262e-07
-1.38424e-06
-2.1722e-07
-0.000262793
1.59917e-06
1.56375e-06
-6.60364e-07
-6.6855e-07
0.000260959
-1.34742e-06
-1.34888e-06
-0.00107187
6.71317e-07
6.72088e-07
0.00107322
-0.00107327
-1.5697e-06
1.34847e-06
6.44475e-07
0.00107458
-6.3697e-07
8.97079e-07
-6.81681e-08
4.60678e-07
-7.94917e-07
-1.39647e-06
-1.98541e-07
-0.00107293
-1.56435e-06
1.34832e-06
6.44549e-07
0.00107424
-6.34237e-07
8.91607e-07
-7.04873e-08
4.60628e-07
-7.97401e-07
-1.39623e-06
-1.96056e-07
-0.000264072
1.59754e-06
1.56458e-06
-6.51907e-07
-6.57546e-07
0.00026222
-1.29976e-06
-1.30104e-06
-0.00107722
6.46118e-07
6.46944e-07
0.00107853
-0.00107844
-1.56263e-06
1.30069e-06
6.15195e-07
0.0010797
-6.24309e-07
9.24813e-07
-4.43234e-08
4.85081e-07
-7.85164e-07
-1.39682e-06
-1.69511e-07
-0.0010781
-1.55723e-06
1.30046e-06
6.15197e-07
0.00107936
-6.21539e-07
9.1935e-07
-4.65677e-08
4.85017e-07
-7.87656e-07
-1.3966e-06
-1.67028e-07
-0.000265291
1.59062e-06
1.55747e-06
-6.35833e-07
-6.41486e-07
0.00026342
-1.25012e-06
-1.25123e-06
-0.00108237
6.22069e-07
6.22939e-07
0.00108363
-0.00108338
-1.55466e-06
1.25091e-06
5.8902e-07
0.00108457
-6.11912e-07
9.50637e-07
-2.37717e-08
5.10849e-07
-7.71559e-07
-1.393e-06
-1.40713e-07
-0.00108304
-1.54922e-06
1.25063e-06
5.88975e-07
0.00108423
-6.09116e-07
9.45161e-07
-2.59129e-08
5.10772e-07
-7.74069e-07
-1.39279e-06
-1.38246e-07
-0.000266436
1.5828e-06
1.54948e-06
-6.19387e-07
-6.25054e-07
0.000264548
-1.20482e-06
-1.20585e-06
-0.00108732
6.01337e-07
6.02167e-07
0.00108853
-0.00108806
-1.54809e-06
1.20554e-06
5.67587e-07
0.00108919
-6.02049e-07
9.73841e-07
-7.41745e-09
5.36491e-07
-7.57835e-07
-1.38816e-06
-1.14057e-07
-0.00108772
-1.54267e-06
1.20526e-06
5.67589e-07
0.00108885
-5.99284e-07
9.68301e-07
-9.32775e-09
5.36399e-07
-7.60369e-07
-1.38796e-06
-1.11615e-07
-0.000267507
1.57649e-06
1.54299e-06
-6.05028e-07
-6.10742e-07
0.000265604
-1.16501e-06
-1.16677e-06
-0.00109208
5.84282e-07
5.85015e-07
0.00109325
-0.00109251
-1.54442e-06
1.16651e-06
5.50479e-07
0.00109359
-5.96074e-07
9.93249e-07
1.08794e-08
5.60706e-07
-7.4594e-07
-1.38409e-06
-9.07501e-08
-0.00109217
-1.53886e-06
1.16661e-06
5.50776e-07
0.00109325
-5.9312e-07
9.87821e-07
6.90055e-09
5.6072e-07
-7.48389e-07
-1.3838e-06
-8.82423e-08
-0.00026851
1.57272e-06
1.53895e-06
-5.93757e-07
-5.99337e-07
0.000266591
-1.13169e-06
-1.13307e-06
-0.00109667
5.70238e-07
5.70813e-07
0.0010978
-0.00109676
-1.54381e-06
1.13283e-06
5.37914e-07
0.00109779
-5.92964e-07
1.00974e-06
2.96234e-08
5.83342e-07
-7.35716e-07
-1.38122e-06
-7.05085e-08
-0.00109641
-1.53821e-06
1.13284e-06
5.37971e-07
0.00109744
-5.90064e-07
1.0043e-06
2.64267e-08
5.83371e-07
-7.38156e-07
-1.38089e-06
-6.80138e-08
-0.00026945
1.57213e-06
1.53829e-06
-5.86068e-07
-5.9172e-07
0.000267517
-1.10334e-06
-1.10459e-06
-0.00110112
5.58749e-07
5.5931e-07
0.00110221
-0.00110081
-1.54453e-06
1.10435e-06
5.2787e-07
0.0011018
-5.91392e-07
1.02496e-06
4.47926e-08
6.04854e-07
-7.26189e-07
-1.37878e-06
-5.27983e-08
-0.00110047
-1.53892e-06
1.10431e-06
5.27886e-07
0.00110145
-5.88507e-07
1.0195e-06
4.17353e-08
6.04878e-07
-7.28641e-07
-1.37847e-06
-5.03421e-08
-0.000270331
1.57301e-06
1.53903e-06
-5.80088e-07
-5.85789e-07
0.000268385
-1.07868e-06
-1.07976e-06
-0.00110543
5.48944e-07
5.49539e-07
0.00110649
-0.0011047
-1.54611e-06
1.07957e-06
5.1925e-07
0.00110565
-5.8804e-07
1.03929e-06
5.48959e-08
6.25092e-07
-7.16721e-07
-1.37629e-06
-3.76409e-08
-0.00110435
-1.54051e-06
1.07946e-06
5.19219e-07
0.0011053
-5.87955e-07
1.03379e-06
5.49837e-08
6.25095e-07
-7.19228e-07
-1.37599e-06
-3.52369e-08
-0.000271159
1.57475e-06
1.54065e-06
-5.75273e-07
-5.81021e-07
0.0002692
-1.05601e-06
-1.05711e-06
-0.00110963
5.39986e-07
5.40563e-07
0.00111066
-0.00110843
-1.54807e-06
1.05696e-06
5.1087e-07
0.00110934
-5.87488e-07
1.05297e-06
6.67595e-08
6.43829e-07
-7.06646e-07
-1.37307e-06
-2.47438e-08
-0.00110808
-1.54244e-06
1.05684e-06
5.10854e-07
0.00110899
-5.87376e-07
1.04746e-06
6.68748e-08
6.43845e-07
-7.0917e-07
-1.37277e-06
-2.24188e-08
-0.000271934
1.57685e-06
1.5426e-06
-5.71112e-07
-5.76929e-07
0.000269963
-1.03463e-06
-1.03559e-06
-0.00111372
5.31431e-07
5.32002e-07
0.00111473
-0.00111201
-1.55004e-06
1.03552e-06
5.02154e-07
0.00111288
-5.85946e-07
1.0663e-06
7.76425e-08
6.61115e-07
-6.95314e-07
-1.36852e-06
-1.38743e-08
-0.00111166
-1.54441e-06
1.03534e-06
5.0215e-07
0.00111253
-5.8582e-07
1.06073e-06
7.77697e-08
6.61146e-07
-6.97826e-07
-1.3682e-06
-1.16699e-08
-0.000272657
1.57904e-06
1.54457e-06
-5.67547e-07
-5.73338e-07
0.000270674
-1.01391e-06
-1.01478e-06
-0.00111771
5.22849e-07
5.23547e-07
0.00111869
-0.00111544
-1.55244e-06
1.01483e-06
4.93121e-07
0.00111627
-5.83224e-07
1.07878e-06
8.75271e-08
6.77001e-07
-6.82336e-07
-1.36219e-06
-5.05675e-09
-0.00111508
-1.54675e-06
1.01451e-06
4.92942e-07
0.00111592
-5.83094e-07
1.07322e-06
8.765e-08
6.76991e-07
-6.8491e-07
-1.36191e-06
-2.30437e-09
-0.000273327
1.58133e-06
1.54696e-06
-5.61669e-07
-5.67231e-07
0.000271328
-9.92158e-07
-9.92962e-07
-0.0011216
5.13334e-07
5.14016e-07
0.00112256
-0.00111871
-1.55342e-06
9.9328e-07
4.8305e-07
0.00111951
-5.79329e-07
1.09138e-06
9.61332e-08
6.90453e-07
-6.68489e-07
-1.35487e-06
5.9714e-09
-0.00111836
-1.54786e-06
9.92774e-07
4.82473e-07
0.00111916
-5.79237e-07
1.08568e-06
9.62149e-08
6.90324e-07
-6.71209e-07
-1.35472e-06
1.02523e-08
-0.000273943
1.58237e-06
1.54791e-06
-5.54423e-07
-5.60041e-07
0.000271927
-9.70904e-07
-9.71733e-07
-0.0011254
5.03898e-07
5.04601e-07
0.00112633
-0.00112184
-1.55379e-06
9.71715e-07
4.71834e-07
0.0011226
-5.73822e-07
1.10326e-06
1.0382e-07
7.01974e-07
-6.53673e-07
-1.34636e-06
1.86178e-08
-0.00112149
-1.54824e-06
9.71508e-07
4.71257e-07
0.00112224
-5.73706e-07
1.09754e-06
1.03914e-07
7.01876e-07
-6.56314e-07
-1.34616e-06
2.21638e-08
-0.0002745
1.58281e-06
1.54825e-06
-5.46839e-07
-5.52471e-07
0.000272468
-9.49852e-07
-9.50656e-07
-0.0011291
4.94547e-07
4.95206e-07
0.00113001
-0.0011248
-1.55305e-06
9.50547e-07
4.60221e-07
0.00112552
-5.663e-07
1.11456e-06
1.1093e-07
7.12128e-07
-6.37557e-07
-1.33611e-06
2.86911e-08
-0.00112445
-1.54752e-06
9.50414e-07
4.59753e-07
0.00112517
-5.66225e-07
1.10882e-06
1.11052e-07
7.12038e-07
-6.40178e-07
-1.33589e-06
3.20746e-08
-0.000274995
1.58221e-06
1.54755e-06
-5.38373e-07
-5.44019e-07
0.000272947
-9.28866e-07
-9.29716e-07
-0.00113271
4.85142e-07
4.85798e-07
0.0011336
-0.00112761
-1.5511e-06
9.29456e-07
4.48747e-07
0.00112828
-5.57087e-07
1.12507e-06
1.17505e-07
7.20941e-07
-6.20677e-07
-1.32458e-06
3.75634e-08
-0.00112725
-1.54558e-06
9.29438e-07
4.48146e-07
0.00112792
-5.57003e-07
1.11929e-06
1.17647e-07
7.20905e-07
-6.23264e-07
-1.32423e-06
4.08406e-08
-0.000275425
1.58036e-06
1.54561e-06
-5.28877e-07
-5.34532e-07
0.000273362
-9.08378e-07
-9.08986e-07
-0.00113622
4.76024e-07
4.76668e-07
0.00113709
-0.00113024
-1.54795e-06
9.0884e-07
4.36664e-07
0.00113087
-5.46518e-07
1.1346e-06
1.23398e-07
7.29094e-07
-6.03244e-07
-1.31128e-06
4.55689e-08
-0.00112988
-1.54237e-06
9.08677e-07
4.36121e-07
0.00113051
-5.46332e-07
1.12886e-06
1.23668e-07
7.2897e-07
-6.05838e-07
-1.31106e-06
4.88314e-08
-0.000275786
1.57724e-06
1.54243e-06
-5.18391e-07
-5.2404e-07
0.000273709
-8.87787e-07
-8.88367e-07
-0.00113965
4.66843e-07
4.67508e-07
0.00114049
-0.00113269
-1.54342e-06
8.88247e-07
4.25181e-07
0.00113328
-5.34706e-07
1.14313e-06
1.28917e-07
7.36427e-07
-5.85681e-07
-1.29654e-06
5.28071e-08
-0.00113233
-1.53786e-06
8.8803e-07
4.24761e-07
0.00113292
-5.3461e-07
1.13736e-06
1.29088e-07
7.36291e-07
-5.88281e-07
-1.29636e-06
5.60475e-08
-0.000276078
1.57279e-06
1.53791e-06
-5.06968e-07
-5.1261e-07
0.000273987
-8.66268e-07
-8.66593e-07
-0.00114297
4.57092e-07
4.57663e-07
0.00114379
-0.00113497
-1.53731e-06
8.66499e-07
4.14696e-07
0.00113551
-5.25049e-07
1.15079e-06
1.36819e-07
7.43408e-07
-5.68188e-07
-1.28047e-06
5.96608e-08
-0.00113461
-1.53175e-06
8.66371e-07
4.14307e-07
0.00113515
-5.21984e-07
1.14501e-06
1.34149e-07
7.4325e-07
-5.70735e-07
-1.2803e-06
6.28545e-08
-0.000276299
1.56674e-06
1.5318e-06
-4.94449e-07
-5.00087e-07
0.000274195
-8.4321e-07
-8.43347e-07
-0.00114621
4.46841e-07
4.47253e-07
0.001147
-0.00113705
-1.5293e-06
8.4361e-07
4.04438e-07
0.00113754
-5.11994e-07
1.1578e-06
1.41919e-07
7.50524e-07
-5.50467e-07
-1.26301e-06
6.66832e-08
-0.00113669
-1.52369e-06
8.43153e-07
4.04078e-07
0.00113718
-5.08821e-07
1.15207e-06
1.39154e-07
7.50385e-07
-5.5298e-07
-1.26283e-06
6.98985e-08
-0.000276448
1.55873e-06
1.52376e-06
-4.80599e-07
-4.86208e-07
0.000274332
-8.14475e-07
-8.1505e-07
-0.00114934
4.33051e-07
4.33522e-07
0.0011501
-0.00113893
-1.519e-06
8.14719e-07
3.91544e-07
0.00113937
-4.96903e-07
1.16486e-06
1.49025e-07
7.59134e-07
-5.319e-07
-1.24348e-06
7.52954e-08
-0.00113857
-1.51334e-06
8.14849e-07
3.90908e-07
0.00113901
-4.93954e-07
1.15921e-06
1.46132e-07
7.58981e-07
-5.34348e-07
-1.24329e-06
7.83812e-08
-0.000276527
1.54852e-06
1.51341e-06
-4.65255e-07
-4.70928e-07
0.000274401
-7.66263e-07
-7.66856e-07
-0.00115232
4.10949e-07
4.11512e-07
0.00115303
-0.00114059
-1.50344e-06
7.66764e-07
3.66834e-07
0.00114096
-4.76455e-07
1.17567e-06
1.61608e-07
7.73815e-07
-5.08033e-07
-1.21791e-06
9.05843e-08
-0.00114022
-1.49773e-06
7.66489e-07
3.66459e-07
0.00114059
-4.73502e-07
1.17004e-06
1.58738e-07
7.73731e-07
-5.10583e-07
-1.21767e-06
9.36256e-08
-0.000276535
1.53289e-06
1.49788e-06
-4.4528e-07
-4.50876e-07
0.000274401
-6.87509e-07
-6.87864e-07
-0.00115505
3.71404e-07
3.72012e-07
0.00115569
-0.00114195
-1.48035e-06
6.87867e-07
3.31056e-07
0.00114224
-4.50444e-07
1.19288e-06
1.80316e-07
7.96673e-07
-4.76938e-07
-1.18476e-06
1.14163e-07
-0.00114159
-1.47465e-06
6.87674e-07
3.30814e-07
0.00114188
-4.47522e-07
1.18723e-06
1.77432e-07
7.96581e-07
-4.79517e-07
-1.18453e-06
1.17142e-07
-0.000276475
1.50983e-06
1.47487e-06
-4.18921e-07
-4.24415e-07
0.000274334
-5.53133e-07
-5.53267e-07
-0.00115741
3.02076e-07
3.02588e-07
0.00115791
-0.00114296
-1.44459e-06
5.5341e-07
2.6967e-07
0.00114315
-4.1462e-07
1.22304e-06
2.1021e-07
8.35846e-07
-4.34953e-07
-1.13744e-06
1.51039e-07
-0.0011426
-1.43901e-06
5.53218e-07
2.69634e-07
0.00114279
-4.11821e-07
1.21728e-06
2.07209e-07
8.35798e-07
-4.37473e-07
-1.13717e-06
1.54007e-07
-0.00027636
1.47407e-06
1.43911e-06
-3.82038e-07
-3.8741e-07
0.000274216
-3.70241e-07
-3.70272e-07
-0.00115916
2.04841e-07
2.05117e-07
0.00115949
-0.00114357
-1.40074e-06
3.70082e-07
1.8756e-07
0.00114366
-3.75453e-07
1.26103e-06
2.44618e-07
8.85889e-07
-3.85485e-07
-1.08016e-06
1.95938e-07
-0.0011432
-1.39516e-06
3.69904e-07
1.87681e-07
0.0011433
-3.7262e-07
1.25529e-06
2.41696e-07
8.85774e-07
-3.8804e-07
-1.07994e-06
1.98812e-07
-0.000276226
1.43026e-06
1.39525e-06
-3.40201e-07
-3.45595e-07
0.000274086
-2.10566e-07
-2.10479e-07
-0.00116025
1.17878e-07
1.17961e-07
0.00116043
-0.00114387
-1.36466e-06
2.10159e-07
1.11697e-07
0.00114391
-3.45201e-07
1.29246e-06
2.71136e-07
9.25806e-07
-3.44914e-07
-1.03455e-06
2.33226e-07
-0.0011435
-1.35894e-06
2.1034e-07
1.11674e-07
0.00114355
-3.42248e-07
1.28683e-06
2.68332e-07
9.25526e-07
-3.47611e-07
-1.03446e-06
2.35962e-07
-0.000276125
1.39438e-06
1.35922e-06
-3.08264e-07
-3.13729e-07
0.000273993
-1.16352e-07
-1.15993e-07
-0.00116084
6.82481e-08
6.82014e-08
0.00116094
-0.00114398
-1.34304e-06
1.1618e-07
6.79819e-08
0.00114399
-3.26932e-07
1.31091e-06
2.86971e-07
9.50898e-07
-3.19269e-07
-1.00598e-06
2.56556e-07
-0.00114362
-1.33737e-06
1.16505e-07
6.80043e-08
0.00114362
-3.24036e-07
1.30524e-06
2.84121e-07
9.5065e-07
-3.22014e-07
-1.00588e-06
2.59239e-07
-0.000276063
1.37282e-06
1.33759e-06
-2.88361e-07
-2.93874e-07
0.000273935
-5.63962e-08
-5.57068e-08
-0.00116113
3.53095e-08
4.11631e-08
0.00116117
-0.00114397
-1.33025e-06
5.59513e-08
4.00476e-08
0.00114396
-3.16236e-07
1.32176e-06
2.96306e-07
9.66011e-07
-3.03635e-07
-9.88794e-07
2.70721e-07
-0.00114361
-1.3246e-06
5.61292e-08
4.00663e-08
-3.13364e-07
1.3161e-06
2.93464e-07
9.65762e-07
-3.06361e-07
-9.8866e-07
2.73406e-07
-0.000276015
1.35997e-06
1.3248e-06
-2.76825e-07
-2.82228e-07
0.000273889
5.21158e-06
5.22242e-06
0.000260569
-0.000259158
-5.9295e-06
-5.91538e-06
5.06485e-06
0.000261404
-0.000258672
-5.95801e-06
3.37251e-06
-5.21165e-06
5.05982e-06
0.000261437
-0.000258687
-5.96601e-06
3.36767e-06
5.21224e-06
0.000260582
-0.000259161
-5.9009e-06
-5.94409e-06
5.05793e-06
0.000261468
-0.000258702
-5.96349e-06
3.36236e-06
5.06465e-06
-5.2139e-06
0.000261412
-0.000258672
3.37757e-06
-5.96819e-06
1.07133e-05
1.06195e-05
-0.000252643
-0.000256072
-0.000255112
-0.000255113
-6.43352e-06
-4.10908e-06
-6.66535e-06
-6.43387e-06
-4.10998e-06
-6.67089e-06
-5.05288e-06
0.00104217
1.06728e-05
1.06248e-05
-0.000252645
-0.00025607
-0.000255115
-0.000255115
-6.43612e-06
-4.10935e-06
-6.66808e-06
-6.43133e-06
-4.10477e-06
-6.6633e-06
-5.05253e-06
0.00104205
1.07331e-05
1.06854e-05
-0.000252638
-0.000256065
-0.000255113
-0.000255107
-6.43598e-06
-4.11673e-06
-6.66802e-06
-6.43618e-06
-4.10701e-06
-6.66564e-06
-5.06722e-06
-5.05534e-06
0.00104212
1.07284e-05
1.06297e-05
-0.00025264
-0.000256067
-0.000255113
-0.000255113
-6.43087e-06
-4.11168e-06
-6.66303e-06
-6.43631e-06
-4.10982e-06
-6.66835e-06
-0.000258697
-5.95586e-06
3.35731e-06
-5.21148e-06
0.000261399
-0.000258669
3.37255e-06
-5.95794e-06
5.21464e-06
0.000260562
-0.000259146
-5.9032e-06
-5.94137e-06
-0.000258682
3.36485e-06
-5.95299e-06
-5.22239e-06
0.000261465
-0.000258697
3.35985e-06
-5.96096e-06
-0.000259156
-5.92936e-06
-5.91541e-06
5.63355e-06
5.67061e-06
-4.87238e-06
-4.86615e-06
0.000259004
-8.22827e-07
-7.86692e-07
0.000261567
-0.000259437
-2.64175e-07
-2.56719e-07
7.13383e-06
0.00105879
-4.56694e-06
-1.55389e-06
-2.19189e-06
-2.55296e-06
-6.66467e-06
-7.06336e-06
-3.17662e-06
-0.000263251
-0.000259683
-0.000262786
-5.64399e-06
1.45802e-05
7.07321e-06
0.00105915
-4.58612e-06
-1.54629e-06
-2.19499e-06
-2.56376e-06
-6.6962e-06
-7.08017e-06
-3.19232e-06
-0.000263325
-0.000259714
-0.000262827
0.00106192
1.95931e-06
-0.00106087
9.1284e-07
-1.71892e-06
-1.45378e-07
-6.9588e-07
-1.47666e-06
-2.62893e-07
-8.13952e-07
3.72996e-07
8.30943e-07
0.00106234
1.95979e-06
-0.00106128
9.0781e-07
-1.72936e-06
-1.38104e-07
-7.01435e-07
-1.48244e-06
-2.63001e-07
-8.14243e-07
3.78436e-07
-4.87053e-06
-4.86301e-06
0.000259014
-7.89407e-07
0.000261593
-0.000259457
-2.61469e-07
-2.53841e-07
6.8552e-06
0.00105962
-4.59119e-06
-1.61286e-06
-2.20797e-06
-2.56213e-06
-6.67874e-06
-7.07562e-06
-3.18761e-06
-0.000263346
-0.000259741
-0.00026284
-5.64366e-06
1.46146e-05
7.16743e-06
0.00105893
-4.58591e-06
-1.55632e-06
-2.20001e-06
-2.56583e-06
-6.69546e-06
-7.07919e-06
-3.19198e-06
-0.000259683
-0.000263302
-0.000262799
0.00106293
1.96695e-06
-0.00106187
9.01464e-07
-1.68892e-06
-1.4782e-07
-6.96173e-07
-1.47963e-06
-2.62932e-07
-8.11598e-07
3.75471e-07
8.20226e-07
0.00106203
1.96997e-06
-0.001061
9.23055e-07
-1.71906e-06
-1.42994e-07
-6.96102e-07
-1.47943e-06
-2.60446e-07
-8.16664e-07
3.7297e-07
1.46115e-05
7.15476e-06
0.00105874
-4.56684e-06
-1.55376e-06
-2.18924e-06
-2.55303e-06
-6.66469e-06
-3.1767e-06
-7.06113e-06
-0.000259678
-0.000263246
-0.000262781
1.96625e-06
-0.00106162
9.06751e-07
-1.6888e-06
-1.45216e-07
-6.93228e-07
-1.4769e-06
-2.65262e-07
3.70183e-07
-8.1134e-07
8.20189e-07
0.00106181
1.96967e-06
-0.00106079
9.23109e-07
-1.71897e-06
-1.42896e-07
-6.95857e-07
-1.4793e-06
-2.62849e-07
-8.13865e-07
3.75574e-07
-4.87524e-06
-4.86284e-06
0.000258993
-7.81218e-07
0.000261544
-0.000259419
-2.6455e-07
-2.59159e-07
1.45129e-05
6.87376e-06
0.00105957
-4.59137e-06
-1.61286e-06
-2.20803e-06
-2.56195e-06
-6.67857e-06
-3.1875e-06
-7.07288e-06
-0.000259731
-0.000263343
-0.000262835
1.97133e-06
-0.00106132
9.22126e-07
-1.68634e-06
-1.47679e-07
-6.95905e-07
-1.47376e-06
-2.60377e-07
3.70233e-07
-8.13905e-07
7.81311e-07
0.00106284
1.9719e-06
-0.00106179
9.11786e-07
-1.68388e-06
-1.47818e-07
-6.93562e-07
-1.47688e-06
-2.62779e-07
-8.14049e-07
3.70373e-07
-0.000259434
-2.61686e-07
-2.59377e-07
1.64223e-06
1.60696e-06
-6.87955e-07
-6.9631e-07
0.000259702
-9.00846e-07
-8.61825e-07
0.000262806
-0.000260642
-2.04444e-07
-1.9679e-07
7.69385e-07
0.0010632
-6.70392e-07
8.54873e-07
-1.2892e-07
3.94868e-07
-8.00092e-07
-1.42063e-06
-2.58951e-07
-1.64754e-06
1.6225e-06
7.64168e-07
0.00106362
-6.73309e-07
8.62963e-07
-1.28941e-07
4.00316e-07
-8.03046e-07
-1.42641e-06
-2.56668e-07
0.00106714
1.39089e-06
-0.00106581
6.76344e-07
-1.60342e-06
-8.96533e-08
-6.46331e-07
-1.38615e-06
-2.23129e-07
-7.88661e-07
4.40321e-07
9.06231e-07
0.00106758
1.39123e-06
-0.00106624
6.71243e-07
-1.60877e-06
-8.97745e-08
-6.46591e-07
-1.3892e-06
-2.23222e-07
-7.89001e-07
4.43141e-07
-6.88393e-07
-6.95683e-07
0.00025972
-8.67095e-07
0.000262832
-0.000260655
-2.04475e-07
-1.9932e-07
7.62824e-07
0.00106422
-6.68061e-07
8.18685e-07
-1.3133e-07
3.97379e-07
-8.03091e-07
-1.42374e-06
-2.56609e-07
-1.64227e-06
1.62777e-06
7.69442e-07
0.0010633
-6.73286e-07
8.54922e-07
-1.28972e-07
3.94899e-07
-8.02786e-07
-1.42081e-06
-2.5651e-07
0.00106817
1.39243e-06
-0.00106685
6.75212e-07
-1.56542e-06
-9.44003e-08
-6.41352e-07
-1.38385e-06
-2.20747e-07
-7.88989e-07
4.43018e-07
8.95551e-07
0.00106726
1.39098e-06
-0.00106592
6.76404e-07
-1.60085e-06
-9.21459e-08
-6.46522e-07
-1.38628e-06
-2.2308e-07
-7.88707e-07
4.43146e-07
1.62235e-06
7.69459e-07
0.0010631
-6.73067e-07
8.5222e-07
-1.31308e-07
3.94811e-07
-8.02714e-07
-2.56555e-07
-1.42072e-06
1.39195e-06
-0.00106658
6.80603e-07
-1.57324e-06
-9.67333e-08
-6.41196e-07
-1.38377e-06
-2.20779e-07
4.42866e-07
-7.88811e-07
8.9814e-07
0.00106705
1.38568e-06
-0.00106571
6.76444e-07
-1.6008e-06
-9.20393e-08
-6.46356e-07
-1.38622e-06
-2.23155e-07
-7.88653e-07
4.40337e-07
-6.91131e-07
-6.93193e-07
0.000259682
-8.5899e-07
0.00026278
-0.000260621
-2.04684e-07
-1.99325e-07
1.62306e-06
7.57788e-07
0.00106414
-6.68101e-07
8.13254e-07
-1.36265e-07
3.92144e-07
-8.00299e-07
-2.61334e-07
-1.41824e-06
1.39194e-06
-0.00106626
6.75535e-07
-1.56267e-06
-9.67259e-08
-6.41135e-07
-1.37814e-06
-2.23127e-07
4.34708e-07
-7.88723e-07
8.61673e-07
0.00106808
1.39229e-06
-0.00106675
6.75302e-07
-1.56287e-06
-9.68622e-08
-6.41428e-07
-1.38645e-06
-2.23137e-07
-7.91603e-07
4.403e-07
-0.000260629
-2.04559e-07
-1.9947e-07
1.60177e-06
1.56894e-06
-6.57649e-07
-6.65955e-07
0.000260959
-9.24205e-07
-8.87717e-07
0.000264088
-0.000261911
-1.84993e-07
-1.79878e-07
6.63185e-07
0.00106849
-6.46633e-07
9.06753e-07
-8.49872e-08
4.44115e-07
-7.89577e-07
-1.38428e-06
-2.22039e-07
-1.60716e-06
1.36606e-06
6.73832e-07
0.00106891
-6.46874e-07
9.12207e-07
-8.50513e-08
4.49709e-07
-7.92545e-07
-1.38997e-06
-2.17301e-07
0.0010725
1.35652e-06
-0.00107118
6.51952e-07
-1.60375e-06
-7.19275e-08
-6.42057e-07
-1.39484e-06
-2.07465e-07
-7.93046e-07
4.55575e-07
9.29728e-07
0.00107292
1.35694e-06
-0.0010716
6.52201e-07
-1.6091e-06
-6.96137e-08
-6.44946e-07
-1.40319e-06
-2.02689e-07
-7.98646e-07
4.63953e-07
-6.60663e-07
-6.62911e-07
0.000260979
-8.90415e-07
0.000264117
-0.000261937
-1.82333e-07
-1.77087e-07
6.6213e-07
0.00106953
-6.44345e-07
8.70376e-07
-8.97142e-08
4.46784e-07
-7.92501e-07
-1.38989e-06
-2.1725e-07
-1.59917e-06
1.36591e-06
6.68562e-07
0.0010686
-6.46838e-07
9.0415e-07
-8.50419e-08
4.46929e-07
-7.9222e-07
-1.38704e-06
-2.17135e-07
0.00107353
1.35801e-06
-0.0010722
6.50941e-07
-1.56809e-06
-7.42488e-08
-6.39678e-07
-1.39778e-06
-2.02655e-07
-7.98642e-07
4.58293e-07
9.24293e-07
0.0010726
1.35678e-06
-0.00107128
6.52179e-07
-1.60377e-06
-6.95925e-08
-6.44897e-07
-1.39751e-06
-2.0253e-07
-7.98323e-07
4.58402e-07
1.37083e-06
6.63311e-07
0.0010684
-6.43974e-07
9.01411e-07
-8.97233e-08
4.46792e-07
-7.92197e-07
-2.19644e-07
-1.38701e-06
1.35759e-06
-0.00107194
6.51112e-07
-1.57067e-06
-7.41454e-08
-6.39496e-07
-1.39508e-06
-2.05111e-07
4.55446e-07
-7.95874e-07
9.18822e-07
0.0010724
1.35649e-06
-0.00107108
6.52093e-07
-1.59848e-06
-7.42491e-08
-6.39333e-07
-1.3949e-06
-2.05061e-07
-7.95665e-07
4.55562e-07
-6.60757e-07
-6.65458e-07
0.000260943
-8.84944e-07
0.000264067
-0.000261896
-1.85056e-07
-1.77148e-07
1.36702e-06
6.67443e-07
0.00106943
-6.39048e-07
8.62278e-07
-9.45053e-08
4.44142e-07
-7.89826e-07
-2.19641e-07
-1.38461e-06
1.35745e-06
-0.0010716
6.51188e-07
-1.56534e-06
-7.64743e-08
-6.36769e-07
-1.39476e-06
-2.02641e-07
4.55452e-07
-7.98379e-07
8.84907e-07
0.00107344
1.35792e-06
-0.00107212
6.51023e-07
-1.56557e-06
-7.66295e-08
-6.37075e-07
-1.3925e-06
-2.0506e-07
-7.95939e-07
4.529e-07
-0.000261909
-1.82531e-07
-1.77296e-07
1.60282e-06
1.56711e-06
-6.49168e-07
-6.54867e-07
0.000262222
-9.51883e-07
-9.15246e-07
0.000265307
-0.000263129
-1.57827e-07
-1.52632e-07
6.45305e-07
0.00107381
-6.39538e-07
9.30906e-07
-6.5962e-08
4.60797e-07
-7.92091e-07
-1.39624e-06
-2.00899e-07
-1.60817e-06
1.34784e-06
6.45548e-07
0.00107424
-6.42425e-07
9.36438e-07
-6.36558e-08
4.69192e-07
-7.97689e-07
-1.40461e-06
-1.96114e-07
0.00107767
1.31242e-06
-0.0010764
6.23276e-07
-1.59794e-06
-4.79107e-08
-6.30242e-07
-1.39719e-06
-1.79291e-07
-7.85432e-07
4.78759e-07
9.57432e-07
0.0010781
1.31286e-06
-0.00107682
6.23561e-07
-1.60331e-06
-4.56463e-08
-6.33133e-07
-1.40557e-06
-1.74503e-07
-7.91038e-07
4.87189e-07
-6.52249e-07
-6.56976e-07
0.000262248
-9.17944e-07
0.000265335
-0.000263155
-1.55151e-07
-1.49844e-07
6.44328e-07
0.00107484
-6.37152e-07
8.94376e-07
-6.82714e-08
4.63527e-07
-7.9769e-07
-1.39918e-06
-1.96086e-07
-1.60283e-06
1.34768e-06
6.45526e-07
0.00107392
-6.42374e-07
9.30999e-07
-6.36337e-08
4.63638e-07
-7.97369e-07
-1.3989e-06
-1.9596e-07
0.00107871
1.31373e-06
-0.00107743
6.22279e-07
-1.56208e-06
-5.01667e-08
-6.2783e-07
-1.40012e-06
-1.74467e-07
-7.91038e-07
4.81523e-07
9.51982e-07
0.00107778
1.31265e-06
-0.0010765
6.23491e-07
-1.59794e-06
-4.56182e-08
-6.33073e-07
-1.39984e-06
-1.74345e-07
-7.90718e-07
4.81628e-07
1.34739e-06
6.45437e-07
0.00107372
-6.36807e-07
9.25512e-07
-6.82737e-08
4.6079e-07
-7.94708e-07
-1.98491e-07
-1.3963e-06
1.31338e-06
-0.00107717
6.22445e-07
-1.56469e-06
-5.00798e-08
-6.27662e-07
-1.3974e-06
-1.76934e-07
4.78657e-07
-7.88266e-07
9.46457e-07
0.00107757
1.31237e-06
-0.0010763
6.23379e-07
-1.59264e-06
-5.01822e-08
-6.27495e-07
-1.39725e-06
-1.76886e-07
-7.88054e-07
4.78757e-07
-6.49662e-07
-6.56957e-07
0.000262207
-9.12476e-07
0.000265286
-0.000263114
-1.57848e-07
-1.49902e-07
1.34878e-06
6.44374e-07
0.00107476
-6.34539e-07
8.9157e-07
-7.06362e-08
4.58127e-07
-7.94986e-07
-1.98488e-07
-1.3939e-06
1.31316e-06
-0.00107683
6.22465e-07
-1.5593e-06
-5.23483e-08
-6.24906e-07
-1.39711e-06
-1.74464e-07
4.78649e-07
-7.90782e-07
9.12427e-07
0.00107862
1.31362e-06
-0.00107735
6.2233e-07
-1.55954e-06
-5.249e-08
-6.252e-07
-1.39484e-06
-1.76874e-07
-7.88333e-07
4.76091e-07
-0.000263127
-1.55354e-07
-1.50052e-07
1.59591e-06
1.56002e-06
-6.33081e-07
-6.38783e-07
0.000263423
-9.78514e-07
-9.41735e-07
0.000266452
-0.000264276
-1.30643e-07
-1.25361e-07
6.15977e-07
0.00107893
-6.26881e-07
9.58798e-07
-4.21599e-08
4.85178e-07
-7.82326e-07
-1.39662e-06
-1.71868e-07
-1.60129e-06
1.30023e-06
6.1628e-07
0.00107935
-6.29779e-07
9.6435e-07
-3.99179e-08
4.93607e-07
-7.87952e-07
-1.40501e-06
-1.67092e-07
0.0010826
1.26225e-06
-0.00108139
5.95854e-07
-1.58994e-06
-2.64346e-08
-6.1738e-07
-1.39391e-06
-1.50116e-07
-7.72214e-07
5.04477e-07
9.84088e-07
0.00108303
1.26277e-06
-0.00108182
5.96199e-07
-1.59534e-06
-2.42659e-08
-6.20275e-07
-1.40233e-06
-1.45315e-07
-7.77835e-07
5.1296e-07
-6.36192e-07
-6.40911e-07
0.000263449
-9.4443e-07
0.000266481
-0.000264302
-1.27946e-07
-1.2258e-07
6.15036e-07
0.00107996
-6.24469e-07
9.22118e-07
-4.44026e-08
4.8795e-07
-7.87937e-07
-1.39954e-06
-1.67043e-07
-1.59591e-06
1.29999e-06
6.16199e-07
0.00107903
-6.29713e-07
9.58897e-07
-3.98869e-08
4.88056e-07
-7.87614e-07
-1.39926e-06
-1.66919e-07
0.00108364
1.2634e-06
-0.00108243
5.94896e-07
-1.55392e-06
-2.85985e-08
-6.14944e-07
-1.39682e-06
-1.45288e-07
-7.77829e-07
5.07276e-07
9.78619e-07
0.00108271
1.2625e-06
-0.0010815
5.96104e-07
-1.58994e-06
-2.42349e-08
-6.20207e-07
-1.39655e-06
-1.45159e-07
-7.77504e-07
5.07386e-07
1.2997e-06
6.16089e-07
0.00107883
-6.24135e-07
9.53356e-07
-4.44203e-08
4.85176e-07
-7.84951e-07
-1.69465e-07
-1.39667e-06
1.2631e-06
-0.00108217
5.95091e-07
-1.55655e-06
-2.85343e-08
-6.14802e-07
-1.3941e-06
-1.47762e-07
5.04391e-07
-7.75055e-07
9.7304e-07
0.0010825
1.26219e-06
-0.00108129
5.9594e-07
-1.58464e-06
-2.86264e-08
-6.14621e-07
-1.39396e-06
-1.47722e-07
-7.74849e-07
5.04477e-07
-6.33552e-07
-6.40885e-07
0.000263407
-9.38958e-07
0.000266431
-0.00026426
-1.30626e-07
-1.22644e-07
1.30092e-06
6.15046e-07
0.00107988
-6.21831e-07
9.19298e-07
-4.67063e-08
4.8251e-07
-7.8523e-07
-1.6945e-07
-1.39426e-06
1.26281e-06
-0.00108183
5.95048e-07
-1.55111e-06
-3.07074e-08
-6.1201e-07
-1.39383e-06
-1.45305e-07
5.04369e-07
-7.77586e-07
9.3889e-07
0.00108355
1.26327e-06
-0.00108234
5.94934e-07
-1.55137e-06
-3.08398e-08
-6.123e-07
-1.39154e-06
-1.47701e-07
-7.75125e-07
5.01806e-07
-0.000264273
-1.28172e-07
-1.22794e-07
1.58809e-06
1.55203e-06
-6.16613e-07
-6.22318e-07
0.000264551
-1.00251e-06
-9.65586e-07
0.000267523
-0.000265349
-1.05849e-07
-1.00492e-07
5.8975e-07
0.0010838
-6.14489e-07
9.84763e-07
-2.16957e-08
5.10937e-07
-7.68714e-07
-1.39281e-06
-1.4306e-07
-1.59349e-06
1.25064e-06
5.90077e-07
0.00108422
-6.17386e-07
9.90342e-07
-1.95653e-08
5.19431e-07
-7.74348e-07
-1.40122e-06
-1.38277e-07
0.00108728
1.21556e-06
-0.00108614
5.7337e-07
-1.58317e-06
-9.15698e-09
-6.06866e-07
-1.38917e-06
-1.22761e-07
-7.5829e-07
5.30277e-07
1.00812e-06
0.00108771
1.216e-06
-0.00108656
5.73581e-07
-1.58856e-06
-7.21528e-09
-6.09724e-07
-1.39756e-06
-1.17924e-07
-7.63873e-07
5.38839e-07
-6.19737e-07
-6.24467e-07
0.000264577
-9.68319e-07
0.000267552
-0.000265375
-1.03065e-07
-9.77058e-08
5.88856e-07
0.00108484
-6.12056e-07
9.47938e-07
-2.38344e-08
5.13739e-07
-7.74335e-07
-1.39573e-06
-1.38241e-07
-1.58809e-06
1.25038e-06
5.90013e-07
0.0010839
-6.17316e-07
9.84868e-07
-1.9534e-08
5.13855e-07
-7.74007e-07
-1.39544e-06
-1.38103e-07
0.00108833
1.21655e-06
-0.00108718
5.72316e-07
-1.54696e-06
-1.11136e-08
-6.04393e-07
-1.39209e-06
-1.17969e-07
-7.63934e-07
5.33077e-07
1.00262e-06
0.00108739
1.21583e-06
-0.00108624
5.73571e-07
-1.58316e-06
-7.19605e-09
-6.09686e-07
-1.3918e-06
-1.17811e-07
-7.63594e-07
5.33215e-07
1.25004e-06
5.89866e-07
0.0010837
-6.11737e-07
9.79265e-07
-2.38644e-08
5.10935e-07
-7.71355e-07
-1.40674e-07
-1.39286e-06
1.21624e-06
-0.00108691
5.72441e-07
-1.54956e-06
-1.10387e-08
-6.04223e-07
-1.38937e-06
-1.2044e-07
5.30169e-07
-7.61149e-07
9.96969e-07
0.00108718
1.21544e-06
-0.00108604
5.73379e-07
-1.57788e-06
-1.11549e-08
-6.04098e-07
-1.38923e-06
-1.20398e-07
-7.6095e-07
5.30262e-07
-6.17053e-07
-6.24452e-07
0.000264535
-9.62782e-07
0.000267502
-0.000265333
-1.05807e-07
-9.77865e-08
1.25109e-06
5.88842e-07
0.00108475
-6.09405e-07
9.45091e-07
-2.6041e-08
5.0826e-07
-7.71632e-07
-1.40654e-07
-1.39044e-06
1.21592e-06
-0.00108657
5.72419e-07
-1.54413e-06
-1.30636e-08
-6.01455e-07
-1.38911e-06
-1.18011e-07
5.30131e-07
-7.63709e-07
9.62708e-07
0.00108824
1.21638e-06
-0.00108709
5.72326e-07
-1.54443e-06
-1.3178e-08
-6.01745e-07
-1.38682e-06
-1.20386e-07
-7.61233e-07
5.27566e-07
-0.000265346
-1.03395e-07
-9.79511e-08
1.58177e-06
1.54552e-06
-6.02179e-07
-6.07966e-07
0.000265606
-1.0258e-06
-9.86135e-07
0.000268528
-0.000266353
-8.47119e-08
-7.897e-08
5.68489e-07
0.00108841
-6.04697e-07
1.01077e-06
-3.39578e-09
5.36596e-07
-7.54975e-07
-1.38796e-06
-1.1638e-07
-1.58718e-06
1.20515e-06
5.68541e-07
0.00108885
-6.07591e-07
1.01367e-06
-3.38783e-09
5.45156e-07
-7.60571e-07
-1.39635e-06
-1.1156e-07
0.00109173
1.17434e-06
-0.00109064
5.54807e-07
-1.58155e-06
1.25968e-08
-6.02825e-07
-1.38493e-06
-9.86883e-08
-7.45994e-07
5.54762e-07
1.02867e-06
0.00109216
1.17459e-06
-0.00109107
5.54858e-07
-1.58431e-06
1.25904e-08
-6.02989e-07
-1.39064e-06
-9.39035e-08
-7.51609e-07
5.6057e-07
-6.05271e-07
-6.10111e-07
0.000265632
-9.8884e-07
0.000268555
-0.000266379
-8.20114e-08
-7.62058e-08
5.67519e-07
0.00108946
-6.02235e-07