/*--------------------------------*- C++ -*----------------------------------*\
| =========                 |                                                 |
| \\      /  F ield         | OpenFOAM: The Open Source CFD Toolbox           |
|  \\    /   O peration     | Version:  v1912                                 |
|   \\  /    A nd           | Website:  www.openfoam.com                      |
|    \\/     M anipulation  |                                                 |
\*---------------------------------------------------------------------------*/
FoamFile
{
    version     2.0;
    format      ascii;
    class       volVectorField;
    location    "120";
    object      U;
}
// * * * * * * * * * * * * * * * * * * * * * * * * * * * * * * * * * * * * * //

dimensions      [0 1 -1 0 0 0 0];


internalField   nonuniform List<vector> 
57100
(
(0.000106002 0.00010594 0.100294)
(-0.000188854 0.000120347 0.10038)
(0.000120435 -0.000188857 0.10038)
(-0.0002406 -0.000240618 0.100392)
(9.56977e-05 9.56387e-05 0.100865)
(-0.000152068 9.20436e-05 0.100944)
(9.20522e-05 -0.00015206 0.100944)
(-0.000192857 -0.000192926 0.100967)
(9.75949e-05 9.75723e-05 0.101371)
(-0.000153433 9.04117e-05 0.101449)
(9.03979e-05 -0.000153439 0.101449)
(-0.000197364 -0.000197427 0.101471)
(9.53798e-05 9.53601e-05 0.101893)
(-0.000150376 8.73532e-05 0.101958)
(8.73671e-05 -0.000150378 0.101958)
(-0.00019512 -0.000195172 0.101965)
(9.20918e-05 9.20812e-05 0.102399)
(-0.000144306 8.29048e-05 0.102446)
(8.29215e-05 -0.000144308 0.102446)
(-0.000190171 -0.000190227 0.102432)
(8.88186e-05 8.88189e-05 0.102886)
(-0.000138292 7.8911e-05 0.102912)
(7.8932e-05 -0.000138296 0.102912)
(-0.000184992 -0.00018505 0.102871)
(8.5863e-05 8.58714e-05 0.103354)
(-0.000132901 7.56087e-05 0.103354)
(7.56472e-05 -0.000132911 0.103354)
(-0.000180553 -0.000180627 0.103281)
(8.33667e-05 8.33106e-05 0.103804)
(-0.000128419 7.31869e-05 0.103774)
(7.31885e-05 -0.000128413 0.103774)
(-0.000177232 -0.000177309 0.103664)
(8.11519e-05 8.10922e-05 0.104238)
(-0.000124694 7.14971e-05 0.104175)
(7.14899e-05 -0.000124685 0.104175)
(-0.000175556 -0.000175612 0.104023)
(7.92919e-05 7.92429e-05 0.104659)
(-0.00012148 7.01055e-05 0.104558)
(7.01012e-05 -0.00012147 0.104558)
(-0.000174567 -0.000174634 0.104358)
(7.7683e-05 7.76437e-05 0.105067)
(-0.000118673 6.89001e-05 0.104925)
(6.89078e-05 -0.000118666 0.104925)
(-0.000174051 -0.000174131 0.104673)
(7.62105e-05 7.61737e-05 0.105464)
(-0.000116158 6.77615e-05 0.105277)
(6.77721e-05 -0.000116144 0.105277)
(-0.000173815 -0.000173918 0.104966)
(7.47826e-05 7.47565e-05 0.105852)
(-0.000113769 6.65321e-05 0.105615)
(6.65626e-05 -0.000113748 0.105615)
(-0.000173783 -0.000173937 0.105239)
(7.34148e-05 7.33872e-05 0.10623)
(-0.000111377 6.54323e-05 0.105939)
(6.5408e-05 -0.000111358 0.105938)
(-0.000173535 -0.000173545 0.105491)
(7.19785e-05 7.19692e-05 0.106598)
(-0.000109167 6.44585e-05 0.106248)
(6.44376e-05 -0.000109212 0.106248)
(-0.000172784 -0.0001728 0.10572)
(7.04327e-05 7.04294e-05 0.106958)
(-0.000107175 6.3472e-05 0.106543)
(6.34471e-05 -0.000107226 0.106543)
(-0.000171877 -0.000171899 0.105926)
(6.88957e-05 6.88923e-05 0.107308)
(-0.000105108 6.24342e-05 0.106822)
(6.24101e-05 -0.000105159 0.106822)
(-0.000170585 -0.000170615 0.106108)
(6.73975e-05 6.73996e-05 0.10765)
(-0.000102956 6.1372e-05 0.107086)
(6.13509e-05 -0.000102993 0.107086)
(-0.000168787 -0.000168828 0.106264)
(6.59726e-05 6.59802e-05 0.107983)
(-0.000100953 6.03446e-05 0.107334)
(6.03084e-05 -0.000100958 0.107334)
(-0.000166455 -0.000166495 0.106394)
(6.45521e-05 6.45516e-05 0.108307)
(-9.89187e-05 5.92623e-05 0.107565)
(5.92565e-05 -9.89254e-05 0.107565)
(-0.000163542 -0.000163584 0.106498)
(6.3087e-05 6.30914e-05 0.108622)
(-9.68149e-05 5.81141e-05 0.107779)
(5.80978e-05 -9.68404e-05 0.107779)
(-0.000159955 -0.00016 0.106574)
(6.15396e-05 6.15555e-05 0.108929)
(-9.44772e-05 5.68327e-05 0.107974)
(5.68073e-05 -9.44813e-05 0.107974)
(-0.000155525 -0.000155563 0.106623)
(5.96857e-05 5.9699e-05 0.109224)
(-9.14103e-05 5.53643e-05 0.10815)
(5.5275e-05 -9.13891e-05 0.10815)
(-0.000150222 -0.000150305 0.106646)
(5.64725e-05 5.64721e-05 0.109505)
(-8.67392e-05 5.22556e-05 0.108304)
(5.2189e-05 -8.67136e-05 0.108304)
(-0.000143044 -0.00014308 0.106643)
(5.06254e-05 5.06382e-05 0.109762)
(-7.84964e-05 4.74967e-05 0.10843)
(4.74492e-05 -7.84875e-05 0.10843)
(-0.000132966 -0.000132969 0.106615)
(4.0641e-05 4.06539e-05 0.109979)
(-6.35608e-05 3.8881e-05 0.108522)
(3.88652e-05 -6.35437e-05 0.108521)
(-0.000118226 -0.000118212 0.106568)
(2.68436e-05 2.68467e-05 0.110138)
(-4.32782e-05 2.7408e-05 0.108574)
(2.74097e-05 -4.32572e-05 0.108574)
(-0.00010078 -0.000100773 0.106515)
(1.46767e-05 1.46726e-05 0.110234)
(-2.55345e-05 1.68768e-05 0.108601)
(1.68599e-05 -2.55588e-05 0.1086)
(-8.70346e-05 -8.70728e-05 0.106477)
(7.68118e-06 7.67553e-06 0.110286)
(-1.48084e-05 1.08008e-05 0.10861)
(1.07942e-05 -1.48465e-05 0.108609)
(-7.86629e-05 -7.87316e-05 0.106453)
(3.0896e-06 3.09936e-06 0.110311)
(-7.97203e-06 6.96727e-06 0.108608)
(6.95813e-06 -8.00639e-06 0.108607)
(-7.38368e-05 -7.387e-05 0.106435)
(0.000133863 0.00013385 0.100279)
(0.000122675 0.000150719 0.100225)
(-0.000122668 0.000150696 0.100225)
(-0.000133861 0.000133817 0.100279)
(0.000150741 0.000122628 0.100225)
(0.000150716 -0.000122651 0.100225)
(8.89307e-05 8.88751e-05 0.100148)
(-8.8919e-05 8.88705e-05 0.100148)
(8.89023e-05 -8.8929e-05 0.100148)
(-8.8898e-05 -8.89233e-05 0.100148)
(-0.000150738 0.000122626 0.100225)
(-0.000150729 -0.00012264 0.100225)
(0.000133858 -0.000133883 0.100279)
(0.00012263 -0.00015075 0.100225)
(-0.000122627 -0.000150725 0.100225)
(-0.000133872 -0.000133849 0.100279)
(0.000240644 0.000240613 0.100392)
(0.000100803 0.000100706 0.100893)
(0.000120481 0.000188749 0.10038)
(-0.000120435 0.000188785 0.10038)
(8.26923e-05 0.000136363 0.100825)
(-8.26574e-05 0.000136376 0.100825)
(-0.000240648 0.000240569 0.100392)
(-0.000100776 0.000100654 0.100893)
(0.000188892 0.000120381 0.10038)
(0.000188836 -0.000120454 0.10038)
(0.000136376 8.26512e-05 0.100826)
(0.000136381 -8.26772e-05 0.100826)
(-0.000188818 -0.000120445 0.10038)
(-0.000136335 8.26588e-05 0.100825)
(-0.000136353 -8.26787e-05 0.100826)
(0.000240575 -0.000240668 0.100392)
(0.000100759 -0.000100799 0.100893)
(-0.000120415 -0.000188879 0.10038)
(8.26616e-05 -0.00013633 0.100826)
(-8.26448e-05 -0.000136348 0.100826)
(-0.00010076 -0.000100803 0.100893)
(0.000192931 0.000192804 0.100967)
(9.96949e-05 9.96273e-05 0.101396)
(9.20546e-05 0.0001521 0.100944)
(-9.20298e-05 0.000152106 0.100944)
(9.12733e-05 0.000154027 0.10132)
(-9.12737e-05 0.000154036 0.10132)
(-0.000192906 0.000192746 0.100967)
(-9.96913e-05 9.96196e-05 0.101396)
(0.000152107 9.20251e-05 0.100944)
(0.000152102 -9.2039e-05 0.100944)
(0.000154007 9.12737e-05 0.10132)
(0.000154029 -9.12768e-05 0.101321)
(-0.000152092 -9.20456e-05 0.100944)
(-0.000153997 9.12977e-05 0.10132)
(-0.000154014 -9.12726e-05 0.10132)
(0.000192849 -0.000192936 0.100967)
(9.96687e-05 -9.96936e-05 0.101396)
(-9.2033e-05 -0.000152087 0.100944)
(9.12846e-05 -0.000153994 0.101321)
(-9.12898e-05 -0.000154015 0.101321)
(-9.96866e-05 -9.97101e-05 0.101396)
(0.000197418 0.000197308 0.101471)
(9.13277e-05 9.12616e-05 0.101893)
(9.03775e-05 0.000153477 0.101449)
(-9.03832e-05 0.000153479 0.101449)
(8.8339e-05 0.000151639 0.101832)
(-8.83186e-05 0.00015163 0.101832)
(-0.000197413 0.000197289 0.101471)
(-9.13055e-05 9.12524e-05 0.101893)
(0.000153448 9.03921e-05 0.101449)
(0.000153475 -9.03834e-05 0.101449)
(0.000151592 8.83434e-05 0.101832)
(0.000151613 -8.83157e-05 0.101832)
(-0.000153463 -9.03873e-05 0.101449)
(-0.000151582 8.83414e-05 0.101832)
(-0.000151621 -8.83327e-05 0.101832)
(0.000197345 -0.000197425 0.101471)
(9.12699e-05 -9.13309e-05 0.101893)
(-9.04097e-05 -0.000153466 0.101449)
(8.83511e-05 -0.000151582 0.101832)
(-8.83447e-05 -0.000151597 0.101832)
(-9.1353e-05 -9.13679e-05 0.101893)
(0.000195139 0.000195036 0.101965)
(8.11792e-05 8.11211e-05 0.102366)
(8.73509e-05 0.000150435 0.101958)
(-8.7329e-05 0.000150425 0.101958)
(8.40138e-05 0.000145952 0.102326)
(-8.39905e-05 0.000145944 0.102326)
(-0.000195121 0.000195014 0.101965)
(-8.11583e-05 8.11175e-05 0.102366)
(0.000150389 8.73583e-05 0.101958)
(0.000150407 -8.73251e-05 0.101958)
(0.000145901 8.40165e-05 0.102326)
(0.000145921 -8.39803e-05 0.102326)
(-0.000150416 -8.73455e-05 0.101958)
(-0.000145891 8.40134e-05 0.102326)
(-0.000145936 -8.40038e-05 0.102326)
(0.000195039 -0.000195154 0.101965)
(8.11167e-05 -8.11828e-05 0.102366)
(-8.7355e-05 -0.000150388 0.101958)
(8.40311e-05 -0.000145891 0.102326)
(-8.40124e-05 -0.000145895 0.102326)
(-8.12145e-05 -8.12321e-05 0.102366)
(0.000190184 0.000190087 0.102432)
(7.13141e-05 7.12625e-05 0.102812)
(8.28978e-05 0.000144368 0.102446)
(-8.28768e-05 0.000144364 0.102446)
(7.98338e-05 0.00013981 0.102798)
(-7.98097e-05 0.000139809 0.102798)
(-0.000190167 0.000190073 0.102432)
(-7.12951e-05 7.12647e-05 0.102812)
(0.000144317 8.29081e-05 0.102446)
(0.000144336 -8.28643e-05 0.102446)
(0.000139754 7.98394e-05 0.102798)
(0.000139775 -7.97926e-05 0.102798)
(-0.000144353 -8.28928e-05 0.102446)
(-0.000139745 7.98391e-05 0.102798)
(-0.000139797 -7.98231e-05 0.102798)
(0.00019008 -0.000190198 0.102432)
(7.12499e-05 -7.1322e-05 0.102812)
(-8.28998e-05 -0.000144309 0.102446)
(7.98602e-05 -0.000139747 0.102798)
(-7.98359e-05 -0.000139745 0.102798)
(-7.13654e-05 -7.13838e-05 0.102812)
(0.000184995 0.000184901 0.102871)
(6.23727e-05 6.23266e-05 0.103229)
(7.88958e-05 0.000138356 0.102912)
(-7.88717e-05 0.000138359 0.102912)
(7.63621e-05 0.000134236 0.103246)
(-7.63186e-05 0.000134226 0.103246)
(-0.000184979 0.000184889 0.102871)
(-6.23513e-05 6.23151e-05 0.103229)
(0.000138302 7.8914e-05 0.102912)
(0.000138321 -7.88551e-05 0.102912)
(0.000134182 7.63672e-05 0.103246)
(0.000134198 -7.63068e-05 0.103246)
(-0.000138345 -7.88955e-05 0.102912)
(-0.000134172 7.63579e-05 0.103246)
(-0.000134228 -7.6351e-05 0.103246)
(0.000184886 -0.000185012 0.102871)
(6.23127e-05 -6.2385e-05 0.103229)
(-7.8905e-05 -0.000138292 0.102912)
(7.63973e-05 -0.000134179 0.103246)
(-7.63672e-05 -0.000134173 0.103246)
(-6.24446e-05 -6.24666e-05 0.103229)
(0.000180554 0.000180436 0.103281)
(5.47211e-05 5.47506e-05 0.10362)
(7.55958e-05 0.000132961 0.103354)
(-7.55558e-05 0.000132954 0.103354)
(7.37603e-05 0.000129533 0.103671)
(-7.37331e-05 0.000129526 0.103671)
(-0.000180531 0.000180396 0.103281)
(-5.47195e-05 5.47809e-05 0.10362)
(0.000132912 7.56224e-05 0.103354)
(0.000132925 -7.55458e-05 0.103354)
(0.00012946 7.37067e-05 0.103671)
(0.000129492 -7.37174e-05 0.103671)
(-0.000132954 -7.56044e-05 0.103354)
(-0.000129451 7.36896e-05 0.103671)
(-0.000129484 -7.36665e-05 0.103671)
(0.000180406 -0.000180584 0.103281)
(5.47541e-05 -5.47095e-05 0.10362)
(-7.56125e-05 -0.0001329 0.103354)
(7.37147e-05 -0.000129449 0.103671)
(-7.36617e-05 -0.000129424 0.103671)
(-5.4698e-05 -5.47046e-05 0.10362)
(0.000177322 0.000177277 0.103664)
(4.86413e-05 4.86518e-05 0.103987)
(7.32887e-05 0.000128501 0.103774)
(-7.32644e-05 0.000128499 0.103774)
(7.19962e-05 0.000125648 0.104076)
(-7.19767e-05 0.000125653 0.104076)
(-0.000177318 0.000177283 0.103664)
(-4.86564e-05 4.87019e-05 0.103988)
(0.000128429 7.32057e-05 0.103774)
(0.000128465 -7.32471e-05 0.103774)
(0.000125583 7.191e-05 0.104076)
(0.000125623 -7.19709e-05 0.104076)
(-0.000128451 -7.31694e-05 0.103774)
(-0.000125575 7.18914e-05 0.104076)
(-0.000125622 -7.19119e-05 0.104076)
(0.000177267 -0.000177342 0.103664)
(4.86441e-05 -4.85974e-05 0.103988)
(-7.31393e-05 -0.000128385 0.103774)
(7.18787e-05 -0.000125563 0.104076)
(-7.18539e-05 -0.000125549 0.104076)
(-4.85932e-05 -4.85838e-05 0.103988)
(0.000175662 0.000175589 0.104023)
(4.30826e-05 4.30753e-05 0.104332)
(7.16034e-05 0.000124768 0.104175)
(-7.1581e-05 0.000124773 0.104175)
(7.05348e-05 0.000122316 0.104463)
(-7.05115e-05 0.000122322 0.104463)
(-0.000175672 0.000175609 0.104023)
(-4.31005e-05 4.31354e-05 0.104332)
(0.000124703 7.1522e-05 0.104175)
(0.000124745 -7.15775e-05 0.104175)
(0.000122247 7.046e-05 0.104463)
(0.000122295 -7.05088e-05 0.104463)
(-0.000124746 -7.15223e-05 0.104175)
(-0.000122241 7.04334e-05 0.104463)
(-0.000122299 -7.04603e-05 0.104463)
(0.000175572 -0.000175651 0.104023)
(4.3075e-05 -4.30577e-05 0.104332)
(-7.14641e-05 -0.000124671 0.104175)
(7.04243e-05 -0.000122228 0.104463)
(-7.04014e-05 -0.000122219 0.104463)
(-4.30537e-05 -4.30589e-05 0.104332)
(0.000174656 0.00017457 0.104358)
(3.78908e-05 3.78762e-05 0.104657)
(7.02128e-05 0.000121559 0.104558)
(-7.01825e-05 0.000121563 0.104558)
(6.93083e-05 0.000119435 0.104834)
(-6.92716e-05 0.000119427 0.104834)
(-0.000174669 0.000174596 0.104358)
(-3.78956e-05 3.79285e-05 0.104657)
(0.000121489 7.01407e-05 0.104558)
(0.000121537 -7.01818e-05 0.104558)
(0.000119354 6.92416e-05 0.104834)
(0.000119404 -6.92723e-05 0.104834)
(-0.00012154 -7.01345e-05 0.104558)
(-0.000119343 6.91923e-05 0.104834)
(-0.000119411 -6.92288e-05 0.104834)
(0.00017456 -0.000174659 0.104358)
(3.78707e-05 -3.78765e-05 0.104657)
(-7.00758e-05 -0.00012146 0.104558)
(6.91948e-05 -0.000119332 0.104834)
(-6.91708e-05 -0.000119327 0.104834)
(-3.78706e-05 -3.7891e-05 0.104657)
(0.000174131 0.000174043 0.104673)
(3.29696e-05 3.29221e-05 0.104961)
(6.90242e-05 0.000118764 0.104925)
(-6.89789e-05 0.000118753 0.104925)
(6.81571e-05 0.000116842 0.10519)
(-6.81287e-05 0.000116835 0.10519)
(-0.000174131 0.000174057 0.104673)
(-3.29853e-05 3.3004e-05 0.104961)
(0.000118684 6.8958e-05 0.104925)
(0.000118735 -6.89804e-05 0.104925)
(0.00011677 6.80973e-05 0.10519)
(0.000116824 -6.8126e-05 0.10519)
(-0.000118743 -6.8937e-05 0.104925)
(-0.000116766 6.805e-05 0.10519)
(-0.000116837 -6.80834e-05 0.10519)
(0.000174028 -0.000174142 0.104673)
(3.29362e-05 -3.29702e-05 0.104961)
(-6.88804e-05 -0.000118657 0.104925)
(6.80557e-05 -0.000116753 0.10519)
(-6.80297e-05 -0.00011675 0.10519)
(-3.29557e-05 -3.29962e-05 0.104961)
(0.000173887 0.000173767 0.104966)
(2.82643e-05 2.81757e-05 0.105247)
(6.7877e-05 0.000116234 0.105277)
(-6.78352e-05 0.000116224 0.105277)
(6.69567e-05 0.000114442 0.105531)
(-6.69048e-05 0.00011443 0.105531)
(-0.000173902 0.000173812 0.104966)
(-2.82754e-05 2.82845e-05 0.105247)
(0.00011616 6.78192e-05 0.105277)
(0.000116212 -6.78349e-05 0.105277)
(0.000114369 6.69191e-05 0.105532)
(0.000114417 -6.69068e-05 0.105531)
(-0.000116227 -6.7791e-05 0.105277)
(-0.000114368 6.6854e-05 0.105532)
(-0.000114439 -6.68614e-05 0.105531)
(0.000173774 -0.000173916 0.104966)
(2.8197e-05 -2.82628e-05 0.105247)
(-6.77411e-05 -0.00011614 0.105277)
(6.687e-05 -0.000114347 0.105532)
(-6.68339e-05 -0.000114348 0.105532)
(-2.82415e-05 -2.83011e-05 0.105247)
(0.000173872 0.000173676 0.105239)
(2.33522e-05 2.34157e-05 0.105511)
(6.66339e-05 0.000113854 0.105615)
(-6.65938e-05 0.000113838 0.105615)
(6.57722e-05 0.00011208 0.105859)
(-6.57926e-05 0.000112043 0.105859)
(-0.000173906 0.000173774 0.105239)
(-2.32616e-05 2.34311e-05 0.105511)
(0.000113775 6.66049e-05 0.105615)
(0.000113826 -6.66027e-05 0.105615)
(0.00011197 6.56854e-05 0.105859)
(0.000112051 -6.57828e-05 0.105859)
(-0.000113849 -6.6552e-05 0.105615)
(-0.000111972 6.56813e-05 0.105859)
(-0.000112064 -6.57525e-05 0.105859)
(0.000173698 -0.000173917 0.105239)
(2.34203e-05 -2.32668e-05 0.105511)
(-6.65121e-05 -0.000113748 0.105615)
(6.56624e-05 -0.000111942 0.105859)
(-6.56576e-05 -0.000111949 0.105859)
(-2.33929e-05 -2.32995e-05 0.105511)
(0.00017358 0.000173541 0.105491)
(1.82946e-05 1.83715e-05 0.105756)
(6.55313e-05 0.00011149 0.105938)
(-6.55499e-05 0.000111456 0.105938)
(6.48141e-05 0.000109792 0.106172)
(-6.48373e-05 0.00010981 0.106172)
(-0.000173506 0.000173522 0.105491)
(-1.82264e-05 1.83651e-05 0.105756)
(0.000111381 6.54398e-05 0.105939)
(0.000111461 -6.55378e-05 0.105938)
(0.000109733 6.47284e-05 0.106172)
(0.000109813 -6.48191e-05 0.106172)
(-0.000111475 -6.55092e-05 0.105938)
(-0.000109695 6.47006e-05 0.106172)
(-0.000109783 -6.47847e-05 0.106172)
(0.000173529 -0.000173531 0.105491)
(1.84014e-05 -1.82622e-05 0.105755)
(-6.54085e-05 -0.000111353 0.105939)
(6.46755e-05 -0.000109709 0.106172)
(-6.46758e-05 -0.000109665 0.106172)
(-1.8314e-05 -1.82346e-05 0.105755)
(0.000172838 0.000172815 0.10572)
(1.35481e-05 1.36319e-05 0.105978)
(6.4575e-05 0.000109279 0.106248)
(-6.46003e-05 0.000109309 0.106248)
(6.3838e-05 0.000107818 0.10647)
(-6.38782e-05 0.000107849 0.10647)
(-0.000172787 0.000172785 0.10572)
(-1.34974e-05 1.36028e-05 0.105978)
(0.000109235 6.44937e-05 0.106248)
(0.000109313 -6.4581e-05 0.106248)
(0.000107764 6.37597e-05 0.10647)
(0.000107839 -6.38471e-05 0.10647)
(-0.000109255 -6.4542e-05 0.106248)
(-0.000107682 6.37287e-05 0.10647)
(-0.000107775 -6.38096e-05 0.10647)
(0.000172834 -0.000172852 0.10572)
(1.36481e-05 -1.35304e-05 0.105977)
(-6.44338e-05 -0.000109136 0.106248)
(6.37009e-05 -0.000107732 0.10647)
(-6.36988e-05 -0.000107653 0.10647)
(-1.35463e-05 -1.34746e-05 0.105977)
(0.000171943 0.00017193 0.105926)
(9.02215e-06 9.1032e-06 0.106176)
(6.35844e-05 0.000107304 0.106542)
(-6.36217e-05 0.000107336 0.106542)
(6.28091e-05 0.000105759 0.106754)
(-6.28311e-05 0.000105776 0.106754)
(-0.000171906 0.000171878 0.105926)
(-8.97522e-06 9.04465e-06 0.106176)
(0.000107257 6.35062e-05 0.106543)
(0.000107332 -6.35937e-05 0.106542)
(0.000105719 6.27299e-05 0.106754)
(0.000105794 -6.28211e-05 0.106753)
(-0.000107274 -6.35569e-05 0.106542)
(-0.000105634 6.2689e-05 0.106754)
(-0.000105745 -6.27851e-05 0.106754)
(0.000171941 -0.000171975 0.105926)
(9.11514e-06 -9.00996e-06 0.106176)
(-6.34452e-05 -0.000107148 0.106543)
(6.26707e-05 -0.000105682 0.106754)
(-6.2669e-05 -0.000105611 0.106754)
(-9.02407e-06 -8.95842e-06 0.106176)
(0.00017065 0.00017063 0.106108)
(4.79721e-06 4.88158e-06 0.10635)
(6.2549e-05 0.00010523 0.106822)
(-6.25656e-05 0.000105246 0.106822)
(6.17529e-05 0.000103602 0.107021)
(-6.17679e-05 0.00010362 0.107021)
(-0.00017061 0.000170556 0.106108)
(-4.74341e-06 4.81899e-06 0.10635)
(0.000105193 6.247e-05 0.106822)
(0.000105269 -6.25612e-05 0.106822)
(0.000103569 6.16789e-05 0.107022)
(0.000103647 -6.17709e-05 0.107021)
(-0.000105221 -6.25236e-05 0.106822)
(-0.000103478 6.16358e-05 0.107022)
(-0.000103604 -6.17321e-05 0.107021)
(0.000170639 -0.000170687 0.106108)
(4.89128e-06 -4.79433e-06 0.10635)
(-6.24072e-05 -0.000105085 0.106822)
(6.16156e-05 -0.00010353 0.107022)
(-6.16109e-05 -0.000103455 0.107022)
(-4.79893e-06 -4.74592e-06 0.10635)
(0.000168852 0.000168837 0.106264)
(8.93336e-07 9.60952e-07 0.106498)
(6.14862e-05 0.000103082 0.107086)
(-6.15042e-05 0.000103082 0.107086)
(6.06983e-05 0.000101582 0.107273)
(-6.07149e-05 0.000101575 0.107273)
(-0.000168805 0.000168762 0.106264)
(-8.39539e-07 9.12769e-07 0.106498)
(0.000103031 6.14147e-05 0.107086)
(0.000103106 -6.15064e-05 0.107086)
(0.000101513 6.06342e-05 0.107274)
(0.000101588 -6.07244e-05 0.107273)
(-0.000103067 -6.14673e-05 0.107086)
(-0.000101466 6.05986e-05 0.107274)
(-0.000101558 -6.06825e-05 0.107273)
(0.00016884 -0.000168894 0.106264)
(9.79643e-07 -8.8873e-07 0.106498)
(-6.13438e-05 -0.000102931 0.107086)
(6.0567e-05 -0.000101472 0.107274)
(-6.05613e-05 -0.000101436 0.107274)
(-8.97374e-07 -8.44855e-07 0.106498)
(0.000166518 0.000166485 0.106394)
(-2.62002e-06 -2.54174e-06 0.106619)
(6.04305e-05 0.000101075 0.107334)
(-6.04464e-05 0.000101064 0.107334)
(5.96537e-05 9.95168e-05 0.107508)
(-5.96662e-05 9.9533e-05 0.107508)
(-0.000166472 0.000166425 0.106394)
(2.6749e-06 -2.58246e-06 0.10662)
(0.000101001 6.03785e-05 0.107334)
(0.000101073 -6.04601e-05 0.107333)
(9.94584e-05 5.95887e-05 0.107509)
(9.95349e-05 -5.96723e-05 0.107508)
(-0.000101044 -6.0419e-05 0.107334)
(-9.94181e-05 5.95496e-05 0.107509)
(-9.95115e-05 -5.96372e-05 0.107508)
(0.000166498 -0.000166556 0.106394)
(-2.53931e-06 2.61993e-06 0.106619)
(-6.03009e-05 -0.000100921 0.107334)
(5.95234e-05 -9.94169e-05 0.107509)
(-5.9514e-05 -9.93845e-05 0.107509)
(2.61266e-06 2.66054e-06 0.106619)
(0.000163596 0.000163573 0.106498)
(-5.74829e-06 -5.7029e-06 0.106713)
(5.93828e-05 9.90086e-05 0.107565)
(-5.9389e-05 9.90199e-05 0.107565)
(5.84997e-05 9.73991e-05 0.107726)
(-5.85143e-05 9.74424e-05 0.107726)
(-0.000163543 0.000163518 0.106498)
(5.81562e-06 -5.76426e-06 0.106713)
(9.8964e-05 5.9311e-05 0.107565)
(9.90404e-05 -5.93951e-05 0.107564)
(9.7369e-05 5.8441e-05 0.107727)
(9.74569e-05 -5.85264e-05 0.107726)
(-9.90098e-05 -5.93628e-05 0.107565)
(-9.73458e-05 5.84035e-05 0.107727)
(-9.74141e-05 -5.84941e-05 0.107726)
(0.000163578 -0.000163643 0.106498)
(-5.69401e-06 5.75857e-06 0.106712)
(-5.92347e-05 -9.88876e-05 0.107565)
(5.8383e-05 -9.73387e-05 0.107727)
(-5.83641e-05 -9.73069e-05 0.107727)
(5.76774e-06 5.80923e-06 0.106712)
(0.000160043 0.000159977 0.106574)
(-8.66662e-06 -8.64355e-06 0.106778)
(5.82132e-05 9.68878e-05 0.107778)
(-5.82222e-05 9.69455e-05 0.107778)
(5.7254e-05 9.51927e-05 0.107926)
(-5.7296e-05 9.52611e-05 0.107926)
(-0.000159975 0.000159907 0.106574)
(8.74626e-06 -8.65862e-06 0.106778)
(9.68663e-05 5.81496e-05 0.107779)
(9.69513e-05 -5.82338e-05 0.107778)
(9.51655e-05 5.72253e-05 0.107927)
(9.52516e-05 -5.72971e-05 0.107926)
(-9.69089e-05 -5.81978e-05 0.107778)
(-9.51092e-05 5.71795e-05 0.107927)
(-9.52114e-05 -5.7256e-05 0.107926)
(0.000159989 -0.000160071 0.106574)
(-8.61569e-06 8.65821e-06 0.106777)
(-5.80722e-05 -9.67796e-05 0.107779)
(5.71729e-05 -9.51379e-05 0.107927)
(-5.71384e-05 -9.50723e-05 0.107927)
(8.68837e-06 8.73552e-06 0.106778)
(0.000155619 0.000155523 0.106623)
(-1.16131e-05 -1.14345e-05 0.106815)
(5.6921e-05 9.45428e-05 0.107974)
(-5.6945e-05 9.46095e-05 0.107973)
(5.58544e-05 9.22581e-05 0.108107)
(-5.58876e-05 9.23245e-05 0.108107)
(-0.000155533 0.000155507 0.106623)
(1.15688e-05 -1.15177e-05 0.106816)
(9.45137e-05 5.68665e-05 0.107974)
(9.46045e-05 -5.69451e-05 0.107973)
(9.22267e-05 5.57696e-05 0.108108)
(9.2315e-05 -5.58772e-05 0.108107)
(-9.45628e-05 -5.69063e-05 0.107974)
(-9.21862e-05 5.57691e-05 0.108108)
(-9.22756e-05 -5.58488e-05 0.108107)
(0.000155562 -0.000155667 0.106623)
(-1.14727e-05 1.16135e-05 0.106815)
(-5.6783e-05 -9.44284e-05 0.107974)
(5.57008e-05 -9.21872e-05 0.108108)
(-5.57135e-05 -9.21388e-05 0.108108)
(1.15594e-05 1.15592e-05 0.106815)
(0.000150245 0.00015029 0.106646)
(-1.54123e-05 -1.52415e-05 0.106825)
(5.5445e-05 9.1446e-05 0.10815)
(-5.54659e-05 9.15262e-05 0.108149)
(5.33159e-05 8.82751e-05 0.108267)
(-5.33389e-05 8.83495e-05 0.108267)
(-0.000150272 0.000150217 0.106646)
(1.53692e-05 -1.52871e-05 0.106825)
(9.14194e-05 5.53526e-05 0.10815)
(9.15026e-05 -5.54746e-05 0.108149)
(8.8233e-05 5.32226e-05 0.108268)
(8.83168e-05 -5.33256e-05 0.108267)
(-9.14708e-05 -5.54511e-05 0.10815)
(-8.82393e-05 5.32254e-05 0.108268)
(-8.82865e-05 -5.32944e-05 0.108267)
(0.000150265 -0.000150288 0.106646)
(-1.52851e-05 1.54109e-05 0.106824)
(-5.52925e-05 -9.13661e-05 0.10815)
(5.3156e-05 -8.82106e-05 0.108268)
(-5.31834e-05 -8.82081e-05 0.108268)
(1.53293e-05 1.53628e-05 0.106825)
(0.000143032 0.000143077 0.106643)
(-2.1849e-05 -2.17065e-05 0.106807)
(5.23532e-05 8.67716e-05 0.108304)
(-5.2371e-05 8.68444e-05 0.108303)
(4.90127e-05 8.10389e-05 0.108401)
(-4.90456e-05 8.10994e-05 0.108401)
(-0.000143061 0.000143036 0.106644)
(2.18137e-05 -2.17478e-05 0.106808)
(8.67277e-05 5.2239e-05 0.108304)
(8.68118e-05 -5.23562e-05 0.108303)
(8.09923e-05 4.89219e-05 0.108401)
(8.10581e-05 -4.90187e-05 0.1084)
(-8.67839e-05 -5.23178e-05 0.108304)
(-8.09921e-05 4.89159e-05 0.108402)
(-8.10542e-05 -4.89845e-05 0.108401)
(0.000143048 -0.000143069 0.106643)
(-2.17468e-05 2.18524e-05 0.106807)
(-5.22181e-05 -8.67117e-05 0.108304)
(4.88671e-05 -8.0979e-05 0.108401)
(-4.89046e-05 -8.09832e-05 0.108401)
(2.17553e-05 2.18152e-05 0.106807)
(0.000132933 0.000132968 0.106615)
(-3.28028e-05 -3.2677e-05 0.106766)
(4.76073e-05 7.8549e-05 0.108429)
(-4.76255e-05 7.86023e-05 0.108429)
(4.15803e-05 6.81205e-05 0.108501)
(-4.16246e-05 6.81698e-05 0.108501)
(-0.000132957 0.000132926 0.106616)
(3.27477e-05 -3.27157e-05 0.106767)
(7.84937e-05 4.74929e-05 0.10843)
(7.85602e-05 -4.75974e-05 0.108429)
(6.80486e-05 4.14984e-05 0.108502)
(6.81332e-05 -4.16075e-05 0.108501)
(-7.85587e-05 -4.75591e-05 0.108429)
(-6.80618e-05 4.15027e-05 0.108503)
(-6.81227e-05 -4.1542e-05 0.108501)
(0.000132935 -0.00013297 0.106615)
(-3.26784e-05 3.28068e-05 0.106766)
(-4.74854e-05 -7.84856e-05 0.10843)
(4.14698e-05 -6.80444e-05 0.108502)
(-4.14845e-05 -6.80423e-05 0.108502)
(3.27129e-05 3.27842e-05 0.106766)
(0.000118184 0.000118211 0.106568)
(-4.80986e-05 -4.80333e-05 0.106716)
(3.89842e-05 6.36035e-05 0.108521)
(-3.90089e-05 6.3642e-05 0.10852)
(3.04025e-05 4.85005e-05 0.108563)
(-3.04358e-05 4.85231e-05 0.108563)
(-0.00011824 0.000118178 0.106568)
(4.80949e-05 -4.80525e-05 0.106717)
(6.35317e-05 3.88578e-05 0.108521)
(6.36224e-05 -3.89895e-05 0.10852)
(4.84435e-05 3.03161e-05 0.108564)
(4.85428e-05 -3.04082e-05 0.108563)
(-6.36071e-05 -3.89256e-05 0.108521)
(-4.84486e-05 3.0323e-05 0.108564)
(-4.8495e-05 -3.03647e-05 0.108563)
(0.000118232 -0.00011823 0.106568)
(-4.80039e-05 4.81351e-05 0.106715)
(-3.88582e-05 -6.35233e-05 0.108521)
(3.03231e-05 -4.8406e-05 0.108564)
(-3.02966e-05 -4.84063e-05 0.108564)
(4.80483e-05 4.81189e-05 0.106716)
(0.000100779 0.000100759 0.106515)
(-6.11418e-05 -6.11304e-05 0.106677)
(2.75225e-05 4.33659e-05 0.108573)
(-2.75138e-05 4.33838e-05 0.108573)
(1.92385e-05 2.94318e-05 0.108594)
(-1.92352e-05 2.94741e-05 0.108594)
(-0.000100772 0.000100736 0.106515)
(6.12064e-05 -6.11335e-05 0.106678)
(4.33029e-05 2.7381e-05 0.108574)
(4.33874e-05 -2.74844e-05 0.108573)
(2.94047e-05 1.91635e-05 0.108595)
(2.94393e-05 -1.92055e-05 0.108594)
(-4.33497e-05 -2.74605e-05 0.108573)
(-2.93447e-05 1.91296e-05 0.108596)
(-2.94446e-05 -1.9233e-05 0.108594)
(0.000100785 -0.000100783 0.106515)
(-6.11622e-05 6.11857e-05 0.106677)
(-2.73904e-05 -4.3265e-05 0.108574)
(1.91123e-05 -2.9359e-05 0.108595)
(-1.91368e-05 -2.93833e-05 0.108595)
(6.11209e-05 6.11412e-05 0.106677)
(8.70451e-05 8.6999e-05 0.106477)
(-6.94539e-05 -6.94542e-05 0.106653)
(1.7033e-05 2.56258e-05 0.108599)
(-1.69959e-05 2.56515e-05 0.108599)
(1.2096e-05 1.7024e-05 0.108607)
(-1.21435e-05 1.70746e-05 0.108607)
(-8.69947e-05 8.69792e-05 0.106477)
(6.9477e-05 -6.94511e-05 0.106654)
(2.5565e-05 1.68769e-05 0.1086)
(2.562e-05 -1.6975e-05 0.108599)
(1.69832e-05 1.20432e-05 0.108608)
(1.70489e-05 -1.21386e-05 0.108607)
(-2.56329e-05 -1.70014e-05 0.108599)
(-1.69712e-05 1.20026e-05 0.108609)
(-1.70547e-05 -1.21242e-05 0.108607)
(8.69623e-05 -8.7061e-05 0.106477)
(-6.94624e-05 6.94403e-05 0.106653)
(-1.6897e-05 -2.55784e-05 0.1086)
(1.19928e-05 -1.70074e-05 0.108608)
(-1.20121e-05 -1.70098e-05 0.108608)
(6.94353e-05 6.94147e-05 0.106653)
(7.86611e-05 7.86309e-05 0.106453)
(-7.41821e-05 -7.41671e-05 0.106634)
(1.09486e-05 1.48836e-05 0.108609)
(-1.09415e-05 1.49073e-05 0.108608)
(7.8581e-06 9.4954e-06 0.108607)
(-7.92874e-06 9.55039e-06 0.108607)
(-7.86636e-05 7.86096e-05 0.106453)
(7.41918e-05 -7.41656e-05 0.106635)
(1.47872e-05 1.07812e-05 0.108609)
(1.48883e-05 -1.09424e-05 0.108608)
(9.45088e-06 7.83973e-06 0.108608)
(9.51315e-06 -7.92141e-06 0.108607)
(-1.48916e-05 -1.09214e-05 0.108608)
(-9.44142e-06 7.8004e-06 0.108609)
(-9.51998e-06 -7.89135e-06 0.108607)
(7.86115e-05 -7.87448e-05 0.106453)
(-7.41707e-05 7.41662e-05 0.106634)
(-1.08092e-05 -1.48436e-05 0.108609)
(7.78901e-06 -9.45516e-06 0.108608)
(-7.78843e-06 -9.4495e-06 0.108608)
(7.41504e-05 7.41619e-05 0.106634)
(7.38071e-05 7.38142e-05 0.106435)
(7.11084e-06 8.06365e-06 0.108607)
(-7.09329e-06 8.07277e-06 0.108606)
(-7.38285e-05 7.37738e-05 0.106435)
(7.94127e-06 6.93106e-06 0.108607)
(8.06501e-06 -7.08708e-06 0.108606)
(-8.06883e-06 -7.05872e-06 0.108606)
(7.37839e-05 -7.38947e-05 0.106435)
(-6.96208e-06 -7.99148e-06 0.108607)
(-2.96755e-07 -2.99799e-07 0.0999988)
(1.64974e-05 1.64934e-05 0.100003)
(-4.6975e-07 1.37342e-05 0.1)
(1.37422e-05 -4.72623e-07 0.1)
(-4.58116e-05 5.4921e-06 0.100008)
(-1.49564e-05 1.49486e-05 0.1)
(-0.000127058 6.05184e-05 0.100059)
(-1.28368e-05 -8.34346e-07 0.0999958)
(5.48873e-06 -4.57932e-05 0.100008)
(1.49509e-05 -1.49567e-05 0.1)
(-8.31851e-07 -1.28358e-05 0.0999958)
(6.05251e-05 -0.000126992 0.100059)
(-1.79118e-05 -1.79147e-05 0.100003)
(-0.000135087 -8.15872e-05 0.100056)
(-8.15962e-05 -0.00013508 0.100056)
(-2.41459e-05 0.00013744 0.10072)
(0.000205054 0.000298811 0.0993421)
(2.33246e-05 0.000303544 0.100515)
(-8.85261e-05 0.000210202 0.099164)
(-0.000332096 0.000893234 0.0976539)
(-8.39239e-05 0.000336149 0.0957639)
(0.000137267 -2.42464e-05 0.10072)
(0.000299401 0.000203809 0.0993427)
(0.000304373 2.32348e-05 0.100516)
(0.000210408 -8.82483e-05 0.0991645)
(-0.000105989 0.000105938 0.100294)
(0.000105978 -0.000105992 0.100294)
(-0.000105971 -0.000105992 0.100294)
(9.15967e-05 9.15103e-05 0.100744)
(-9.15601e-05 9.15245e-05 0.100744)
(9.15618e-05 -9.15927e-05 0.100744)
(-9.15426e-05 -9.16069e-05 0.100744)
(-0.000278654 7.25893e-07 0.100753)
(-0.000402209 0.000206426 0.100512)
(-0.000177856 3.70434e-05 0.10033)
(-0.000151394 9.49531e-05 0.100554)
(-0.000345815 1.97264e-05 0.100469)
(-0.000179854 0.00017326 0.100756)
(-0.000150039 3.39291e-05 0.100494)
(0.000892198 -0.000330391 0.0976522)
(0.000336333 -8.369e-05 0.095765)
(6.63333e-07 -0.000278548 0.100753)
(3.7088e-05 -0.000177859 0.10033)
(0.000206523 -0.000402146 0.100512)
(9.48972e-05 -0.000151391 0.100554)
(1.97876e-05 -0.000345715 0.100469)
(3.39813e-05 -0.000149997 0.100495)
(0.000173305 -0.000179824 0.100755)
(-0.000390773 -0.000137947 0.100361)
(-0.000138054 -0.000390983 0.100362)
(-0.000111354 -0.000111463 0.100654)
(2.45883e-05 -9.68117e-05 0.100589)
(-9.70211e-05 2.46749e-05 0.100589)
(-1.25718e-05 0.000188506 0.100863)
(-4.76149e-05 0.000252079 0.0983049)
(-1.40147e-05 0.000192535 0.100771)
(-4.18489e-05 0.000245836 0.0979398)
(-0.000142279 0.000340842 0.0926056)
(-0.00012477 0.000292192 0.0909913)
(0.000188439 -1.26982e-05 0.100863)
(0.000252341 -4.75004e-05 0.0983052)
(0.000192547 -1.41116e-05 0.100772)
(0.000245997 -4.17675e-05 0.09794)