/*--------------------------------*- C++ -*----------------------------------*\
| =========                 |                                                 |
| \\      /  F ield         | OpenFOAM: The Open Source CFD Toolbox           |
|  \\    /   O peration     | Version:  v1912                                 |
|   \\  /    A nd           | Website:  www.openfoam.com                      |
|    \\/     M anipulation  |                                                 |
\*---------------------------------------------------------------------------*/
FoamFile
{
    version     2.0;
    format      ascii;
    class       volScalarField;
    location    "80";
    object      epsilon;
}
// * * * * * * * * * * * * * * * * * * * * * * * * * * * * * * * * * * * * * //

dimensions      [0 2 -3 0 0 0 0];


internalField   nonuniform List<scalar> 
57100
(
4.95565e-07
4.97334e-07
4.97334e-07
4.9957e-07
4.45573e-07
4.5375e-07
4.53752e-07
4.63724e-07
4.03752e-07
4.18522e-07
4.18526e-07
4.39419e-07
3.68363e-07
3.88551e-07
3.88557e-07
4.17659e-07
3.38014e-07
3.62095e-07
3.62102e-07
3.96066e-07
3.11644e-07
3.38261e-07
3.3827e-07
3.74559e-07
2.8847e-07
3.16626e-07
3.16635e-07
3.53686e-07
2.6792e-07
2.97014e-07
2.97023e-07
3.34124e-07
2.49576e-07
2.79369e-07
2.79378e-07
3.16466e-07
2.33133e-07
2.63686e-07
2.63695e-07
3.0115e-07
2.18366e-07
2.49972e-07
2.49981e-07
2.88489e-07
2.05088e-07
2.38223e-07
2.38233e-07
2.78701e-07
1.93178e-07
2.2845e-07
2.28461e-07
2.71891e-07
1.82492e-07
2.20624e-07
2.20636e-07
2.68163e-07
1.72981e-07
2.14751e-07
2.14765e-07
2.67503e-07
1.64399e-07
2.10479e-07
2.10497e-07
2.69496e-07
1.5682e-07
2.07181e-07
2.07201e-07
2.72331e-07
1.48913e-07
2.02452e-07
2.02472e-07
2.72324e-07
1.41867e-07
1.97436e-07
1.97461e-07
2.69455e-07
1.38305e-07
1.95963e-07
1.95992e-07
2.68797e-07
1.37327e-07
1.96203e-07
1.96233e-07
2.7005e-07
1.37258e-07
1.96536e-07
1.96564e-07
2.70654e-07
1.37284e-07
1.967e-07
1.96727e-07
2.70923e-07
1.37313e-07
1.96787e-07
1.96814e-07
2.71062e-07
1.37334e-07
1.96837e-07
1.96863e-07
2.71141e-07
1.37349e-07
1.96866e-07
1.96893e-07
2.71183e-07
1.3736e-07
1.96883e-07
1.96909e-07
2.71201e-07
1.37369e-07
1.96894e-07
1.9692e-07
2.71216e-07
1.37376e-07
1.96899e-07
1.96924e-07
2.71222e-07
1.37378e-07
1.96902e-07
1.96927e-07
2.7122e-07
5.06418e-07
5.05584e-07
5.05583e-07
5.06417e-07
5.05583e-07
5.05583e-07
5.09648e-07
5.09648e-07
5.09648e-07
5.09648e-07
5.05585e-07
5.05584e-07
5.06418e-07
5.05585e-07
5.05583e-07
5.06418e-07
4.9957e-07
4.67246e-07
4.97335e-07
4.97339e-07
4.63735e-07
4.63743e-07
4.9957e-07
4.67243e-07
4.97339e-07
4.9734e-07
4.63739e-07
4.63745e-07
4.97336e-07
4.63731e-07
4.63736e-07
4.9957e-07
4.67249e-07
4.97338e-07
4.63732e-07
4.6374e-07
4.67249e-07
4.63723e-07
4.41421e-07
4.53755e-07
4.53763e-07
4.2675e-07
4.26758e-07
4.63722e-07
4.41415e-07
4.53759e-07
4.53767e-07
4.26751e-07
4.26763e-07
4.53757e-07
4.26741e-07
4.26752e-07
4.63726e-07
4.41426e-07
4.53759e-07
4.26746e-07
4.26753e-07
4.41424e-07
4.39415e-07
4.19274e-07
4.18531e-07
4.18539e-07
3.95678e-07
3.95684e-07
4.39413e-07
4.19266e-07
4.18531e-07
4.18544e-07
3.95674e-07
3.95691e-07
4.18534e-07
3.95665e-07
3.95681e-07
4.39422e-07
4.1928e-07
4.18532e-07
3.95671e-07
3.95675e-07
4.19278e-07
4.17654e-07
3.97627e-07
3.88565e-07
3.88571e-07
3.68455e-07
3.6846e-07
4.17648e-07
3.97618e-07
3.8856e-07
3.88578e-07
3.68446e-07
3.68467e-07
3.88569e-07
3.68438e-07
3.68458e-07
4.1766e-07
3.97634e-07
3.88561e-07
3.68446e-07
3.68447e-07
3.97632e-07
3.9606e-07
3.76062e-07
3.62112e-07
3.62117e-07
3.44022e-07
3.44025e-07
3.96053e-07
3.76052e-07
3.62102e-07
3.62124e-07
3.44009e-07
3.44033e-07
3.62116e-07
3.44003e-07
3.44025e-07
3.96067e-07
3.76068e-07
3.62104e-07
3.44011e-07
3.4401e-07
3.76067e-07
3.74554e-07
3.55085e-07
3.38281e-07
3.38284e-07
3.21863e-07
3.21865e-07
3.74546e-07
3.55074e-07
3.38267e-07
3.38292e-07
3.21847e-07
3.21873e-07
3.38284e-07
3.21842e-07
3.21866e-07
3.7456e-07
3.5509e-07
3.38269e-07
3.21851e-07
3.21848e-07
3.5509e-07
3.5368e-07
3.35369e-07
3.16648e-07
3.1665e-07
3.01755e-07
3.01756e-07
3.53672e-07
3.35359e-07
3.16631e-07
3.16658e-07
3.01737e-07
3.01763e-07
3.16651e-07
3.01732e-07
3.01757e-07
3.53686e-07
3.35375e-07
3.16633e-07
3.01741e-07
3.01738e-07
3.35374e-07
3.34119e-07
3.17512e-07
2.97037e-07
2.97038e-07
2.83621e-07
2.83622e-07
3.34111e-07
3.17502e-07
2.97018e-07
2.97046e-07
2.83601e-07
2.83629e-07
2.9704e-07
2.83597e-07
2.83623e-07
3.34125e-07
3.17518e-07
2.9702e-07
2.83606e-07
2.83601e-07
3.17517e-07
3.1646e-07
3.0196e-07
2.79393e-07
2.79394e-07
2.67448e-07
2.67449e-07
3.16452e-07
3.0195e-07
2.79373e-07
2.79401e-07
2.67427e-07
2.67456e-07
2.79396e-07
2.67423e-07
2.6745e-07
3.16466e-07
3.01967e-07
2.79374e-07
2.67432e-07
2.67427e-07
3.01966e-07
3.01143e-07
2.89034e-07
2.63711e-07
2.63711e-07
2.53243e-07
2.53243e-07
3.01135e-07
2.89023e-07
2.63689e-07
2.63718e-07
2.5322e-07
2.5325e-07
2.63712e-07
2.53216e-07
2.53243e-07
3.0115e-07
2.89041e-07
2.6369e-07
2.53225e-07
2.5322e-07
2.8904e-07
2.88482e-07
2.78953e-07
2.49998e-07
2.49999e-07
2.41005e-07
2.41005e-07
2.88474e-07
2.78941e-07
2.49975e-07
2.50006e-07
2.40981e-07
2.41013e-07
2.49999e-07
2.40976e-07
2.41005e-07
2.8849e-07
2.78961e-07
2.49976e-07
2.40986e-07
2.40981e-07
2.78959e-07
2.78693e-07
2.71844e-07
2.38251e-07
2.38252e-07
2.3074e-07
2.30741e-07
2.78684e-07
2.71831e-07
2.38227e-07
2.38259e-07
2.30715e-07
2.30749e-07
2.38252e-07
2.30709e-07
2.30739e-07
2.78702e-07
2.71852e-07
2.38228e-07
2.30719e-07
2.30715e-07
2.7185e-07
2.71883e-07
2.67866e-07
2.2848e-07
2.28483e-07
2.22429e-07
2.2243e-07
2.71873e-07
2.67852e-07
2.28455e-07
2.2849e-07
2.22402e-07
2.22438e-07
2.28481e-07
2.22393e-07
2.22427e-07
2.71893e-07
2.67876e-07
2.28456e-07
2.22404e-07
2.22401e-07
2.67874e-07
2.68154e-07
2.66898e-07
2.20656e-07
2.20661e-07
2.16097e-07
2.16101e-07
2.68143e-07
2.66883e-07
2.20631e-07
2.2067e-07
2.1607e-07
2.1611e-07
2.20657e-07
2.16058e-07
2.16095e-07
2.68165e-07
2.66909e-07
2.20631e-07
2.16071e-07
2.16069e-07
2.66908e-07
2.67494e-07
2.68434e-07
2.14788e-07
2.14794e-07
2.11449e-07
2.11457e-07
2.67479e-07
2.68417e-07
2.14762e-07
2.14804e-07
2.11422e-07
2.11466e-07
2.14787e-07
2.11403e-07
2.11445e-07
2.67504e-07
2.68447e-07
2.1476e-07
2.1142e-07
2.11418e-07
2.68445e-07
2.69484e-07
2.713e-07
2.10522e-07
2.10531e-07
2.08081e-07
2.08089e-07
2.69467e-07
2.71279e-07
2.10496e-07
2.10541e-07
2.08054e-07
2.081e-07
2.10518e-07
2.08029e-07
2.08074e-07
2.69495e-07
2.71313e-07
2.10491e-07
2.08049e-07
2.08047e-07
2.71313e-07
2.72312e-07
2.71825e-07
2.07229e-07
2.07237e-07
2.03881e-07
2.0389e-07
2.72292e-07
2.71808e-07
2.07202e-07
2.07249e-07
2.03854e-07
2.03907e-07
2.07222e-07
2.03831e-07
2.03873e-07
2.72323e-07
2.71848e-07
2.07195e-07
2.03851e-07
2.03846e-07
2.71837e-07
2.723e-07
2.68978e-07
2.02499e-07
2.02507e-07
1.98499e-07
1.98504e-07
2.72283e-07
2.68952e-07
2.02471e-07
2.02525e-07
1.98471e-07
1.98523e-07
2.02491e-07
1.9844e-07
1.98489e-07
2.72321e-07
2.68994e-07
2.02463e-07
1.98463e-07
1.98461e-07
2.68988e-07
2.69431e-07
2.67948e-07
1.97494e-07
1.97499e-07
1.96085e-07
1.96092e-07
2.69404e-07
2.67913e-07
1.97466e-07
1.97516e-07
1.96058e-07
1.96105e-07
1.97484e-07
1.96022e-07
1.96077e-07
2.69444e-07
2.67957e-07
1.97456e-07
1.9605e-07
1.96051e-07
2.67962e-07
2.68764e-07
2.69201e-07
1.96024e-07
1.96034e-07
1.96143e-07
1.96161e-07
2.68727e-07
2.69163e-07
1.95998e-07
1.96045e-07
1.96118e-07
1.96167e-07
1.96019e-07
1.96085e-07
1.96143e-07
2.68771e-07
2.69206e-07
1.95992e-07
1.96116e-07
1.96116e-07
2.69214e-07
2.70017e-07
2.69914e-07
1.96262e-07
1.96282e-07
1.96532e-07
1.96555e-07
2.6998e-07
2.69874e-07
1.96238e-07
1.96286e-07
1.9651e-07
1.96557e-07
1.96264e-07
1.96477e-07
1.96537e-07
2.7002e-07
2.69915e-07
1.96237e-07
1.96506e-07
1.9651e-07
2.6993e-07
2.70619e-07
2.70211e-07
1.96591e-07
1.96615e-07
1.96722e-07
1.9675e-07
2.7058e-07
2.70174e-07
1.96569e-07
1.96616e-07
1.96702e-07
1.9675e-07
1.96597e-07
1.96672e-07
1.96732e-07
2.70617e-07
2.70211e-07
1.96571e-07
1.96699e-07
1.96706e-07
2.7023e-07
2.70892e-07
2.70355e-07
1.9675e-07
1.96779e-07
1.9682e-07
1.96851e-07
2.70855e-07
2.70321e-07
1.9673e-07
1.96779e-07
1.968e-07
1.96851e-07
1.96762e-07
1.96772e-07
1.96834e-07
2.7089e-07
2.70359e-07
1.96735e-07
1.96798e-07
1.96808e-07
2.7038e-07
2.71026e-07
2.70438e-07
1.96835e-07
1.96866e-07
1.96874e-07
1.96908e-07
2.70993e-07
2.70406e-07
1.96815e-07
1.96866e-07
1.96855e-07
1.96908e-07
1.9685e-07
1.96828e-07
1.9689e-07
2.71027e-07
2.70444e-07
1.96824e-07
1.96854e-07
1.96867e-07
2.70466e-07
2.71103e-07
2.70488e-07
1.96881e-07
1.96916e-07
1.96905e-07
1.96941e-07
2.71071e-07
2.70456e-07
1.96863e-07
1.96916e-07
1.96887e-07
1.96941e-07
1.96898e-07
1.96861e-07
1.96921e-07
2.71105e-07
2.70492e-07
1.96876e-07
1.96887e-07
1.969e-07
2.70511e-07
2.7115e-07
2.70515e-07
1.9691e-07
1.96946e-07
1.96925e-07
1.96962e-07
2.71118e-07
2.70481e-07
1.96892e-07
1.96946e-07
1.96907e-07
1.96961e-07
1.96926e-07
1.9688e-07
1.96941e-07
2.71151e-07
2.70516e-07
1.96905e-07
1.96906e-07
1.9692e-07
2.70531e-07
2.71174e-07
2.7053e-07
1.96928e-07
1.96965e-07
1.96938e-07
1.96976e-07
2.7114e-07
2.70495e-07
1.96911e-07
1.96965e-07
1.96922e-07
1.96976e-07
1.96944e-07
1.96892e-07
1.96954e-07
2.71172e-07
2.7053e-07
1.96924e-07
1.96918e-07
1.96935e-07
2.70547e-07
2.71188e-07
2.70537e-07
1.96941e-07
1.96979e-07
1.96944e-07
1.96984e-07
2.71154e-07
2.70502e-07
1.96924e-07
1.96978e-07
1.96929e-07
1.96982e-07
1.96956e-07
1.96898e-07
1.96959e-07
2.71185e-07
2.70538e-07
1.96937e-07
1.96923e-07
1.9694e-07
2.70551e-07
2.71196e-07
2.70537e-07
1.96944e-07
1.96984e-07
1.96946e-07
1.96987e-07
2.71162e-07
2.70504e-07
1.96929e-07
1.96982e-07
1.96932e-07
1.96985e-07
1.96959e-07
1.96901e-07
1.96961e-07
2.71195e-07
2.70537e-07
1.9694e-07
1.96926e-07
1.96942e-07
2.70547e-07
2.71194e-07
1.96946e-07
1.96986e-07
2.71165e-07
1.96932e-07
1.96986e-07
1.96961e-07
2.71195e-07
1.96943e-07
5.35663e-07
5.35601e-07
5.35655e-07
5.35655e-07
5.34573e-07
5.35516e-07
5.33635e-07
5.35654e-07
5.34573e-07
5.35516e-07
5.35654e-07
5.33635e-07
5.35255e-07
5.35988e-07
5.35988e-07
1.10847e-06
3.87979e-06
9.32848e-07
4.60495e-06
1.26056e-05
1.66021e-05
1.10861e-06
3.88002e-06
9.32876e-07
4.60532e-06
4.95565e-07
4.95565e-07
4.95565e-07
4.57233e-07
4.57233e-07
4.57233e-07
4.57233e-07
5.43216e-07
1.22287e-06
4.95564e-07
4.85541e-07
5.25281e-07
1.2106e-06
4.82303e-07
1.26072e-05
1.66047e-05
5.43234e-07
4.95564e-07
1.22284e-06
4.85542e-07
5.2526e-07
4.82304e-07
1.21061e-06
2.52021e-06
2.5209e-06
4.84193e-07
2.38086e-06
2.38124e-06
1.43198e-06
5.59235e-06
1.33017e-06
6.13454e-06
2.12874e-05
2.31098e-05
1.43239e-06
5.59302e-06
1.3302e-06
6.13519e-06
4.45573e-07
4.45574e-07
4.45574e-07
4.13543e-07
4.13542e-07
4.13544e-07
4.13543e-07
5.87312e-07
1.19312e-06
4.46441e-07
4.44305e-07
5.73985e-07
1.2021e-06
4.35698e-07
2.12896e-05
2.31134e-05
5.87331e-07
4.46442e-07
1.19314e-06
4.44308e-07
5.73993e-07
4.35699e-07
1.20219e-06
2.31501e-06
2.31551e-06
4.53487e-07
2.35742e-06
2.35788e-06
1.66526e-06
6.91719e-06
1.59762e-06
7.31854e-06
2.46424e-05
2.49371e-05
1.66536e-06
6.91801e-06
1.5975e-06
7.31947e-06
4.03752e-07
4.03754e-07
4.03753e-07
3.7669e-07
3.76689e-07
3.76692e-07
3.76691e-07
6.15966e-07
1.23989e-06
4.06557e-07
4.10624e-07
6.08735e-07
1.26242e-06
3.97741e-07
2.46457e-05
2.49406e-05
6.15983e-07
4.06558e-07
1.23998e-06
4.10629e-07
6.0875e-07
3.97744e-07
1.26259e-06
2.47823e-06
2.47871e-06
4.30172e-07
2.53669e-06
2.53717e-06
1.81486e-06
7.84617e-06
1.77471e-06
8.0984e-06
2.47391e-05
2.44267e-05
1.815e-06
7.84713e-06
1.7747e-06
8.0997e-06
3.68363e-07
3.68365e-07
3.68365e-07
3.45193e-07
3.45192e-07
3.45195e-07
3.45194e-07
6.26812e-07
1.30981e-06
3.73494e-07
3.81654e-07
6.25364e-07
1.33038e-06
3.66046e-07
2.47418e-05
2.44298e-05
6.26824e-07
3.73495e-07
1.3099e-06
3.8166e-07
6.25377e-07
3.66049e-07
1.33055e-06
2.63858e-06
2.63908e-06
4.08457e-07
2.68223e-06
2.68273e-06
1.89554e-06
8.39604e-06
1.87584e-06
8.52937e-06
2.36938e-05
2.32605e-05
1.89571e-06
8.39719e-06
1.87586e-06
8.53082e-06
3.38014e-07
3.38017e-07
3.38016e-07
3.17911e-07
3.1791e-07
3.17914e-07
3.17912e-07
6.22697e-07
1.36896e-06
3.45259e-07
3.55913e-07
6.2601e-07
1.38408e-06
3.38786e-07
2.36963e-05
2.3263e-05
6.2271e-07
3.4526e-07
1.36905e-06
3.55921e-07
6.26023e-07
3.38789e-07
1.38425e-06
2.76574e-06
2.76626e-06
3.86816e-07
2.8071e-06
2.80763e-06
1.93259e-06
8.66419e-06
1.92449e-06
8.71979e-06
2.25021e-05
2.21148e-05
1.93277e-06
8.66553e-06
1.92452e-06
8.72122e-06
3.11644e-07
3.11647e-07
3.11646e-07
2.93999e-07
2.93998e-07
2.94002e-07
2.94e-07
6.09497e-07
1.41334e-06
3.20515e-07
3.32657e-07
6.15982e-07
1.425e-06
3.1477e-07
2.25038e-05
2.21174e-05
6.09511e-07
3.20517e-07
1.41341e-06
3.32665e-07
6.15994e-07
3.14773e-07
1.42516e-06
2.89631e-06
2.89689e-06
3.65462e-07
2.94452e-06
2.94513e-06
1.95061e-06
8.76108e-06
1.94631e-06
8.77278e-06
2.14773e-05
2.11727e-05
1.95079e-06
8.76251e-06
1.94635e-06
8.7742e-06
2.88469e-07
2.88473e-07
2.88472e-07
2.72837e-07
2.72836e-07
2.7284e-07
2.72838e-07
5.92476e-07
1.45052e-06
2.98436e-07
3.11538e-07
5.99979e-07
1.46196e-06
2.9327e-07
2.14784e-05
2.11753e-05
5.92491e-07
2.98437e-07
1.45059e-06
3.11547e-07
5.99993e-07
2.93273e-07
1.46213e-06
3.04949e-06
3.05018e-06
3.45034e-07
3.10628e-06
3.10703e-06
1.96823e-06
8.77124e-06
1.96223e-06
8.7662e-06
2.06736e-05
2.04478e-05
1.9684e-06
8.77267e-06
1.96226e-06
8.76762e-06
2.67919e-07
2.67923e-07
2.67922e-07
2.53974e-07
2.53973e-07
2.53977e-07
2.53975e-07
5.76059e-07
1.48989e-06
2.78529e-07
2.9242e-07
5.82881e-07
1.50384e-06
2.73855e-07
2.06746e-05
2.04503e-05
5.76075e-07
2.7853e-07
1.48996e-06
2.92429e-07
5.82896e-07
2.73858e-07
1.50401e-06
3.22633e-06
3.22715e-06
3.26182e-07
3.29128e-06
3.29222e-06
1.99806e-06
8.75252e-06
1.98688e-06
8.74646e-06
2.00697e-05
1.99076e-05
1.99821e-06
8.75398e-06
1.9869e-06
8.74793e-06
2.49576e-07
2.4958e-07
2.49578e-07
2.37081e-07
2.3708e-07
2.37084e-07
2.37082e-07
5.6351e-07
1.5384e-06
2.60504e-07
2.75265e-07
5.68434e-07
1.5564e-06
2.56271e-07
2.00711e-05
1.99094e-05
5.63526e-07
2.60506e-07
1.53847e-06
2.75274e-07
5.68451e-07
2.56275e-07
1.55656e-06
3.42155e-06
3.42252e-06
3.09431e-07
3.49201e-06
3.49315e-06
2.04764e-06
8.73711e-06
2.02917e-06
8.73493e-06
1.96296e-05
1.95137e-05
2.04779e-06
8.73861e-06
2.02919e-06
8.73647e-06
2.33133e-07
2.33137e-07
2.33135e-07
2.21913e-07
2.21911e-07
2.21915e-07
2.21914e-07
5.57116e-07
1.59986e-06
2.44189e-07
2.60073e-07
5.59249e-07
1.6226e-06
2.40364e-07
1.96314e-05
1.95155e-05
5.57134e-07
2.4419e-07
1.59994e-06
2.60082e-07
5.59267e-07
2.40368e-07
1.62277e-06
3.62757e-06
3.62869e-06
2.95158e-07
3.70033e-06
3.70168e-06
2.12139e-06
8.73458e-06
2.0945e-06
8.73724e-06
1.93153e-05
1.9234e-05
2.12155e-06
8.73621e-06
2.09452e-06
8.73891e-06
2.18366e-07
2.1837e-07
2.18368e-07
2.08277e-07
2.08275e-07
2.08279e-07
2.08277e-07
5.58245e-07
1.67554e-06
2.29473e-07
2.46851e-07
5.57365e-07
1.70295e-06
2.26034e-07
1.93171e-05
1.92358e-05
5.58265e-07
2.29474e-07
1.67563e-06
2.4686e-07
5.57385e-07
2.26038e-07
1.70313e-06
3.83607e-06
3.83735e-06
2.83636e-07
3.9082e-06
3.90976e-06
2.22099e-06
8.74391e-06
2.18539e-06
8.7508e-06
1.90947e-05
1.90386e-05
2.22115e-06
8.74566e-06
2.18543e-06
8.75254e-06
2.05088e-07
2.05092e-07
2.0509e-07
1.9604e-07
1.96038e-07
1.96042e-07
1.9604e-07
5.67628e-07
1.7647e-06
2.16272e-07
2.35594e-07
5.63776e-07
1.79618e-06
2.13205e-07
1.90965e-05
1.90404e-05
5.67652e-07
2.16273e-07
1.76479e-06
2.35604e-07
5.638e-07
2.13208e-07
1.79637e-06
4.0393e-06
4.04072e-06
2.75017e-07
4.10809e-06
4.10982e-06
2.3458e-06
8.76164e-06
2.30197e-06
8.77037e-06
1.89416e-05
1.89029e-05
2.34599e-06
8.76346e-06
2.30195e-06
8.77217e-06
1.93178e-07
1.93183e-07
1.93181e-07
1.85048e-07
1.85046e-07
1.8505e-07
1.85048e-07
5.86599e-07
1.86521e-06
2.04537e-07
2.26309e-07
5.79476e-07
1.89988e-06
2.0182e-07
1.89433e-05
1.89046e-05
5.86627e-07
2.04537e-07
1.86532e-06
2.2632e-07
5.79501e-07
2.01823e-07
1.90008e-06
4.23064e-06
4.2322e-06
2.69485e-07
4.29388e-06
4.29576e-06
2.49243e-06
8.78221e-06
2.4416e-06
8.79036e-06
1.88335e-05
1.88061e-05
2.49263e-06
8.78408e-06
2.44165e-06
8.79222e-06
1.82492e-07
1.82497e-07
1.82495e-07
1.75277e-07
1.75275e-07
1.75279e-07
1.75277e-07
6.15535e-07
1.97407e-06
1.94187e-07
2.18984e-07
6.05076e-07
2.01063e-06
1.91826e-07
1.88353e-05
1.88078e-05
6.15569e-07
1.94187e-07
1.97419e-06
2.18997e-07
6.05107e-07
1.9183e-07
2.01085e-06
4.4051e-06
4.40678e-06
2.67031e-07
4.46098e-06
4.46296e-06
2.65263e-06
8.80076e-06
2.59861e-06
8.80634e-06
1.87602e-05
1.87429e-05
2.65288e-06
8.80264e-06
2.59871e-06
8.80821e-06
1.72981e-07
1.72986e-07
1.72984e-07
1.66438e-07
1.66435e-07
1.6644e-07
1.66437e-07
6.54011e-07
2.08661e-06
1.85207e-07
2.13537e-07
6.40576e-07
2.12276e-06
1.83133e-07
1.8762e-05
1.87446e-05
6.54054e-07
1.85207e-07
2.08676e-06
2.13553e-07
6.40618e-07
1.83137e-07
2.12299e-06
4.55745e-06
4.55919e-06
2.67389e-07
4.6025e-06
4.60454e-06
2.81367e-06
8.80828e-06
2.76274e-06
8.81106e-06
1.87075e-05
1.86952e-05
2.81418e-06
8.81021e-06
2.76262e-06
8.81301e-06
1.64398e-07
1.64403e-07
1.64401e-07
1.58692e-07
1.58688e-07
1.58693e-07
1.5869e-07
6.995e-07
2.19302e-06
1.7735e-07
2.09625e-07
6.84364e-07
2.22257e-06
1.75588e-07
1.8709e-05
1.86967e-05
6.99549e-07
1.77351e-07
2.19316e-06
2.09644e-07
6.84406e-07
1.75592e-07
2.22281e-06
4.67432e-06
4.67616e-06
2.69878e-07
4.70548e-06
4.70755e-06
2.91815e-06
8.8121e-06
2.89345e-06
8.80917e-06
1.86714e-05
1.86619e-05
2.91826e-06
8.81415e-06
2.89344e-06
8.81116e-06
1.56821e-07
1.56826e-07
1.56823e-07
1.50941e-07
1.50938e-07
1.50943e-07
1.5094e-07
7.38825e-07
2.27449e-06
1.70563e-07
2.06211e-07
7.28341e-07
2.29271e-06
1.68843e-07
1.86728e-05
1.86633e-05
7.38835e-07
1.70564e-07
2.27467e-06
2.06231e-07
7.2838e-07
1.68847e-07
2.29296e-06
4.75188e-06
4.75382e-06
2.72203e-07
4.76321e-06
4.76518e-06
2.95204e-06
8.79433e-06
2.94626e-06
8.78663e-06
1.86432e-05
1.86385e-05
2.95224e-06
8.79604e-06
2.9463e-06
8.78833e-06
1.48913e-07
1.48919e-07
1.48915e-07
1.4336e-07
1.43355e-07
1.43361e-07
1.43357e-07
7.55761e-07
2.31751e-06
1.63272e-07
2.01027e-07
7.53001e-07
2.32139e-06
1.61398e-07
1.86446e-05
1.86399e-05
7.55808e-07
1.63272e-07
2.31752e-06
2.01048e-07
7.5302e-07
1.61401e-07
2.32152e-06
4.76937e-06
4.77125e-06
2.7051e-07
4.76759e-06
4.76951e-06
2.95845e-06
8.77533e-06
2.95795e-06
8.77253e-06
1.86295e-05
1.86294e-05
2.9588e-06
8.77727e-06
2.9583e-06
8.77438e-06
1.41868e-07
1.41874e-07
1.41871e-07
1.38878e-07
1.38875e-07
1.38882e-07
1.38878e-07
7.61142e-07
2.32535e-06
1.56685e-07
1.96697e-07
7.60011e-07
2.32482e-06
1.55594e-07
1.86302e-05
1.86297e-05
7.61226e-07
1.56688e-07
2.3255e-06
1.96722e-07
7.60101e-07
1.556e-07
2.32505e-06
4.76365e-06
4.76549e-06
2.68098e-07
4.76058e-06
4.76244e-06
2.95653e-06
8.76926e-06
2.95849e-06
8.76823e-06
1.86246e-05
1.86253e-05
2.95698e-06
8.77106e-06
2.95886e-06
8.76989e-06
1.38306e-07
1.38312e-07
1.38309e-07
1.37437e-07
1.37434e-07
1.3744e-07
1.37437e-07
7.65328e-07
2.32591e-06
1.53746e-07
1.95964e-07
7.64732e-07
2.32425e-06
1.53494e-07
1.86247e-05
1.86255e-05
7.65451e-07
1.53751e-07
2.32621e-06
1.95993e-07
7.64839e-07
1.535e-07
2.32461e-06
4.75725e-06
4.75912e-06
2.68588e-07
4.7549e-06
4.75692e-06
2.95393e-06
8.76684e-06
2.95527e-06
8.76657e-06
1.86221e-05
1.86236e-05
2.95437e-06
8.76849e-06
2.95569e-06
8.76825e-06
1.37329e-07
1.37335e-07
1.37333e-07
1.37257e-07
1.3725e-07
1.37256e-07
1.37255e-07
7.66463e-07
2.32449e-06
1.53275e-07
1.96313e-07
7.66757e-07
2.32313e-06
1.53279e-07
1.86223e-05
1.86241e-05
7.66603e-07
1.5328e-07
2.32479e-06
1.96343e-07
7.66901e-07
1.53285e-07
2.32348e-06
4.75333e-06
4.75532e-06
2.69653e-07
4.75221e-06
4.75421e-06
2.9532e-06
8.7661e-06
2.95393e-06
8.76612e-06
1.86216e-05
1.86235e-05
2.9536e-06
8.76795e-06
2.95429e-06
8.76806e-06
1.37256e-07
1.37262e-07
1.37262e-07
1.37278e-07
1.37274e-07
1.3728e-07
1.37279e-07
7.66738e-07
2.32399e-06
1.53324e-07
1.96591e-07
7.67117e-07
2.32291e-06
1.5336e-07
1.86219e-05
1.8624e-05
7.66867e-07
1.53329e-07
2.32429e-06
1.96619e-07
7.6725e-07
1.53365e-07
2.32325e-06
4.75201e-06
4.75395e-06
2.70105e-07
4.75151e-06
4.75341e-06
2.95324e-06
8.76611e-06
2.95381e-06
8.76623e-06
1.86217e-05
1.86238e-05
2.95364e-06
8.76812e-06
2.95411e-06
8.76828e-06
1.37285e-07
1.37291e-07
1.3729e-07
1.37308e-07
1.37307e-07
1.37313e-07
1.37313e-07
7.66979e-07
2.32402e-06
1.53419e-07
1.96729e-07
7.67366e-07
2.32301e-06
1.53443e-07
1.86221e-05
1.86243e-05
7.67102e-07
1.53423e-07
2.3243e-06
1.96755e-07
7.6749e-07
1.53449e-07
2.32332e-06
4.75194e-06
4.75377e-06
2.70317e-07
4.75157e-06
4.75342e-06
2.95335e-06
8.76622e-06
2.95391e-06
8.7663e-06
1.86221e-05
1.86241e-05
2.95376e-06
8.76829e-06
2.95427e-06
8.76841e-06
1.37317e-07
1.37323e-07
1.37323e-07
1.3733e-07
1.37333e-07
1.37338e-07
1.37338e-07
7.6715e-07
2.32413e-06
1.53477e-07
1.96803e-07
7.67569e-07
2.3231e-06
1.53492e-07
1.86224e-05
1.86245e-05
7.67274e-07
1.53483e-07
2.32441e-06
1.96829e-07
7.67692e-07
1.53499e-07
2.32343e-06
4.75199e-06
4.75393e-06
2.70431e-07
4.75161e-06
4.75358e-06
2.95341e-06
8.76622e-06
2.954e-06
8.76629e-06
1.86223e-05
1.86243e-05
2.95382e-06
8.76835e-06
2.95435e-06
8.76845e-06
1.3734e-07
1.37345e-07
1.37345e-07
1.37346e-07
1.37351e-07
1.37357e-07
1.37357e-07
7.67242e-07
2.32421e-06
1.53511e-07
1.96846e-07
7.67689e-07
2.32316e-06
1.53521e-07
1.86226e-05
1.86247e-05
7.67367e-07
1.53517e-07
2.32448e-06
1.96872e-07
7.67813e-07
1.53527e-07
2.32349e-06
4.75203e-06
4.75393e-06
2.70492e-07
4.75167e-06
4.75357e-06
2.95344e-06
8.76621e-06
2.95404e-06
8.76628e-06
1.86224e-05
1.86244e-05
2.95386e-06
8.7684e-06
2.9544e-06
8.7685e-06
1.37357e-07
1.37362e-07
1.37362e-07
1.37358e-07
1.37366e-07
1.37372e-07
1.37372e-07
7.6728e-07
2.32424e-06
1.53532e-07
1.96871e-07
7.67743e-07
2.32319e-06
1.53538e-07
1.86226e-05
1.86247e-05
7.67405e-07
1.53537e-07
2.32452e-06
1.96897e-07
7.67867e-07
1.53544e-07
2.32351e-06
4.75208e-06
4.75396e-06
2.70525e-07
4.7517e-06
4.7536e-06
2.95345e-06
8.7662e-06
2.95405e-06
8.76626e-06
1.86224e-05
1.86244e-05
2.95387e-06
8.76843e-06
2.95442e-06
8.76852e-06
1.37373e-07
1.37378e-07
1.37379e-07
1.37367e-07
1.37379e-07
1.37385e-07
1.37385e-07
7.67292e-07
2.32426e-06
1.53545e-07
1.96886e-07
7.67762e-07
2.3232e-06
1.53551e-07
1.86226e-05
1.86247e-05
7.67417e-07
1.5355e-07
2.32454e-06
1.96912e-07
7.67886e-07
1.53557e-07
2.32352e-06
4.75209e-06
4.75397e-06
2.7054e-07
4.75171e-06
4.75361e-06
2.95346e-06
8.76618e-06
2.95406e-06
8.76625e-06
1.86225e-05
1.86244e-05
2.95388e-06
8.76845e-06
2.95443e-06
8.76854e-06
1.37387e-07
1.37393e-07
1.37392e-07
1.37375e-07
1.37388e-07
1.37393e-07
1.37392e-07
7.67298e-07
2.32427e-06
1.53557e-07
1.96896e-07
7.67769e-07
2.32321e-06
1.53562e-07
1.86227e-05
1.86247e-05
7.67424e-07
1.53562e-07
2.32454e-06
1.96922e-07
7.67895e-07
1.53567e-07
2.32353e-06
4.75211e-06
4.75398e-06
2.70547e-07
4.75172e-06
4.75362e-06
2.95346e-06
8.76616e-06
2.95406e-06
8.76623e-06
1.86225e-05
1.86244e-05
2.95388e-06
8.76848e-06
2.95443e-06
8.76859e-06
1.37392e-07
1.37397e-07
1.37396e-07
1.37378e-07
1.37389e-07
1.37394e-07
1.37393e-07
7.67299e-07
2.32427e-06
1.53563e-07
1.96899e-07
7.67771e-07
2.32321e-06
1.53567e-07
1.86227e-05
1.86247e-05
7.67426e-07
1.53567e-07
2.32455e-06
1.96924e-07
7.67897e-07
1.5357e-07
2.32353e-06
4.7521e-06
4.75397e-06
2.70553e-07
4.75171e-06
4.75362e-06
2.95361e-06
8.76616e-06
2.95407e-06
8.76623e-06
1.86225e-05
1.86244e-05
2.95397e-06
8.76854e-06
2.95444e-06
8.76863e-06
1.37393e-07
1.37396e-07
1.37395e-07
7.67798e-07
2.32427e-06
1.53563e-07
1.96903e-07
7.67773e-07
2.32381e-06
1.53565e-07
1.86226e-05
1.53571e-07
2.32455e-06
7.67903e-07
4.7521e-06
4.754e-06
5.35255e-07
5.35992e-07
5.35989e-07
1.09168e-05
5.81344e-07
1.09181e-05
5.81336e-07
5.28208e-07
2.43155e-06
2.4325e-06
5.40836e-07
5.40833e-07
5.34573e-07
5.35517e-07
5.33636e-07
5.35654e-07
5.34573e-07
5.35517e-07
5.33635e-07
5.35654e-07
5.30399e-07
3.47213e-06
5.68203e-07
8.20537e-07
5.30398e-07
3.47216e-06
5.68201e-07
8.20502e-07
5.29521e-07
5.2838e-07
1.17048e-06
5.09602e-07
5.32663e-07
5.28353e-07
5.19185e-07
5.29521e-07
5.2838e-07
1.17061e-06
5.09601e-07
5.32662e-07
5.28353e-07
5.19187e-07
5.35254e-07
5.35991e-07
5.35989e-07
1.0917e-05
5.81322e-07
5.28209e-07
2.43205e-06
2.43217e-06
5.40836e-07
5.40832e-07
1.09177e-05
5.81317e-07
5.34573e-07
5.35516e-07
5.33636e-07
5.35654e-07
5.34573e-07
5.35517e-07
5.35654e-07
5.33636e-07
5.30398e-07
3.47248e-06
5.682e-07
8.20682e-07
5.29521e-07
5.28381e-07
1.17074e-06
5.09602e-07
5.32662e-07
5.28353e-07
5.19193e-07
5.30398e-07
3.47256e-06
5.68198e-07
8.20584e-07
5.29521e-07
5.2838e-07
5.09602e-07
1.17065e-06
5.28353e-07
5.32661e-07
5.19187e-07
5.35663e-07
5.35601e-07
5.35655e-07
5.35655e-07
5.35663e-07
5.35601e-07
5.35655e-07
5.35655e-07
5.35663e-07
5.35601e-07
5.35655e-07
5.35655e-07
5.28434e-07
5.28376e-07
5.09724e-07
5.09724e-07
5.28408e-07
5.28408e-07
5.09781e-07
5.28434e-07
5.28375e-07
5.09724e-07
5.09724e-07
5.28408e-07
5.28408e-07
5.09781e-07
5.28434e-07
5.28376e-07
5.09724e-07
5.09724e-07
5.28408e-07
5.28408e-07
5.09781e-07
5.28434e-07
5.28376e-07
5.09724e-07
5.09724e-07
5.28408e-07
5.28408e-07
5.09781e-07
5.34573e-07
5.35517e-07
5.35654e-07
5.33635e-07
5.29521e-07
5.2838e-07
1.17069e-06
5.09602e-07
5.32661e-07
5.28353e-07
5.19191e-07
5.30398e-07
3.47237e-06
5.68194e-07
8.20589e-07
5.29521e-07
5.2838e-07
5.09602e-07
1.17055e-06
5.28353e-07
5.32661e-07
5.19187e-07
5.30398e-07
3.4725e-06
5.68198e-07
8.20533e-07
5.35254e-07
5.35989e-07
5.35988e-07
1.09183e-05
5.81333e-07
5.28208e-07
2.43233e-06
2.43218e-06
5.40832e-07
5.40829e-07
1.09181e-05
5.81312e-07
5.34573e-07
5.35516e-07
5.35654e-07
5.33635e-07
5.29521e-07
5.2838e-07
5.09602e-07
1.17061e-06
5.28353e-07
5.3266e-07
5.1919e-07
5.29521e-07
5.28381e-07
5.09602e-07
1.17074e-06
5.28353e-07
5.32662e-07
5.19193e-07
5.30398e-07
3.47253e-06
5.68192e-07
8.20658e-07
5.30398e-07
3.47254e-06
5.68203e-07
8.20747e-07
5.28208e-07
2.43198e-06
2.43262e-06
5.4083e-07
5.40831e-07
1.0918e-05
5.81316e-07
1.09182e-05
5.8133e-07
1.26054e-05
1.66012e-05
1.26069e-05
1.66038e-05
2.52017e-06
2.5209e-06
4.84191e-07
2.38049e-06
2.38125e-06
2.05305e-05
1.76905e-05
2.0534e-05
1.76935e-05
4.79311e-07
2.30852e-06
2.30917e-06
2.34323e-06
2.34398e-06
1.10833e-06
3.87977e-06
9.3296e-07
4.60485e-06
5.43201e-07
1.22274e-06
4.95564e-07
4.85544e-07
5.25294e-07
1.21055e-06
4.82304e-07
5.43198e-07
1.22292e-06
4.95564e-07
4.8555e-07
5.25301e-07
1.21077e-06
4.82304e-07
1.16248e-06
5.40636e-06
4.80929e-06
1.28112e-06
1.1626e-06
5.40633e-06
4.80936e-06
1.28113e-06
5.51155e-07
4.74327e-07
1.19173e-06
4.57771e-07
1.20561e-06
4.69717e-07
5.66581e-07
5.51159e-07
4.74335e-07
1.1919e-06
4.57771e-07
1.20579e-06
4.69717e-07
5.66577e-07
2.52064e-06
2.52038e-06
4.8419e-07
2.38111e-06
2.38062e-06
1.26061e-05
1.66024e-05
2.05317e-05
1.76923e-05
4.79311e-07
2.30902e-06
2.30874e-06
2.34373e-06
2.34358e-06
2.05318e-05
1.76912e-05
5.43234e-07
1.22301e-06
4.95564e-07
4.85548e-07
5.25294e-07
1.2108e-06
4.82304e-07
1.10856e-06
3.88027e-06
9.32725e-07
4.60568e-06
5.43229e-07
4.95564e-07
1.22297e-06
4.85552e-07
5.25283e-07
4.82304e-07
1.21081e-06
1.1625e-06
5.40683e-06
4.80962e-06
1.28128e-06
5.51158e-07
4.74333e-07
1.19192e-06
4.57771e-07
1.20582e-06
4.69717e-07
5.66597e-07
1.16249e-06
5.40736e-06
4.81007e-06
1.28128e-06
5.51158e-07
4.74337e-07
4.57772e-07
1.19197e-06
4.69718e-07
1.20585e-06
5.66605e-07
1.10849e-06
3.87975e-06
9.32815e-07
4.60518e-06
5.43213e-07
4.95564e-07
1.22283e-06
4.85544e-07
5.2527e-07
4.82304e-07
1.21065e-06
1.10851e-06
3.88027e-06
9.32652e-07
4.60531e-06
5.51154e-07
4.74324e-07
1.19172e-06
4.5777e-07
1.20564e-06
4.69716e-07
5.66584e-07
1.16252e-06
5.40646e-06
4.80905e-06
1.28121e-06
5.51152e-07
4.74328e-07
4.57771e-07
1.19178e-06
4.69717e-07
1.20562e-06
5.66583e-07
1.16243e-06
5.40677e-06
4.80994e-06
1.28119e-06
2.52082e-06
2.52032e-06
4.84193e-07
2.38123e-06
2.38049e-06
1.26069e-05
1.66028e-05
2.05351e-05
1.76937e-05
4.79312e-07
2.30923e-06
2.30869e-06
2.34391e-06
2.34343e-06
2.05326e-05
1.76931e-05
5.43243e-07
4.95564e-07
1.22301e-06
4.85549e-07
5.25272e-07
4.82304e-07
1.21079e-06
1.10876e-06
3.88024e-06
9.32592e-07
4.60539e-06
1.10882e-06
3.88013e-06
9.32711e-07
4.60528e-06
5.51153e-07
4.74325e-07
4.57771e-07
1.19177e-06
4.69717e-07
1.20567e-06
5.66597e-07
5.51152e-07
4.74332e-07
4.57771e-07
1.1919e-06
4.69717e-07
1.2058e-06
5.66604e-07
1.16227e-06
5.40702e-06
4.80991e-06
1.28131e-06
1.1623e-06
5.40699e-06
4.80966e-06
1.28133e-06
1.26065e-05
1.66027e-05
1.2607e-05
1.66034e-05
4.79312e-07
2.30864e-06
2.30914e-06
2.34313e-06
2.34393e-06
2.05319e-05
1.76925e-05
2.05335e-05
1.76938e-05
2.12854e-05
2.31082e-05
2.12892e-05
2.31123e-05
2.31487e-06
2.31555e-06
4.53484e-07
2.35715e-06
2.35776e-06
2.44705e-05
2.3536e-05
2.44741e-05
2.35396e-05
4.50894e-07
2.4468e-06
2.44739e-06
2.38536e-06
2.38594e-06
1.43198e-06
5.59246e-06
1.33015e-06
6.13471e-06
5.87311e-07
1.19311e-06
4.46442e-07
4.44311e-07
5.73985e-07
1.20213e-06
4.35699e-07
5.87307e-07
1.19326e-06
4.46442e-07
4.4432e-07
5.73981e-07
1.2023e-06
4.35699e-07
1.47619e-06
6.77635e-06
6.30011e-06
1.55936e-06
1.47615e-06
6.77647e-06
6.30017e-06
1.55934e-06
5.93595e-07
4.35328e-07
1.22855e-06
4.15798e-07
1.20997e-06
4.25498e-07
6.03946e-07
5.93587e-07
4.35337e-07
1.22867e-06
4.15799e-07
1.21013e-06
4.25498e-07
6.03942e-07
2.31532e-06
2.31506e-06
4.5348e-07
2.35758e-06
2.35726e-06
2.12861e-05
2.31093e-05
2.44715e-05
2.35379e-05
4.50892e-07
2.44724e-06
2.44672e-06
2.38576e-06
2.38572e-06
2.44712e-05
2.35369e-05
5.87329e-07
1.19332e-06
4.46442e-07
4.44314e-07
5.73999e-07
1.2023e-06
4.357e-07
1.4324e-06
5.59337e-06
1.33021e-06
6.13593e-06
5.87331e-07
4.46444e-07
1.19334e-06
4.44323e-07
5.74002e-07
4.357e-07
1.20237e-06
1.47591e-06
6.77703e-06
6.30089e-06
1.55964e-06
5.93609e-07
4.35332e-07
1.22867e-06
4.15799e-07
1.21013e-06
4.25498e-07
6.0396e-07
1.47593e-06
6.77781e-06
6.30126e-06
1.55967e-06
5.93616e-07
4.35341e-07
4.158e-07
1.22873e-06
4.255e-07
1.21026e-06
6.03969e-07
1.43215e-06
5.59234e-06
1.33013e-06
6.13475e-06
5.87317e-07
4.46442e-07
1.19315e-06
4.44313e-07
5.73987e-07
4.35699e-07
1.20223e-06
1.43203e-06
5.59303e-06
1.33023e-06
6.13521e-06
5.93591e-07
4.35322e-07
1.22847e-06
4.15797e-07
1.20998e-06
4.25497e-07
6.03949e-07
1.47606e-06
6.77658e-06