/*--------------------------------*- C++ -*----------------------------------*\
| =========                 |                                                 |
| \\      /  F ield         | OpenFOAM: The Open Source CFD Toolbox           |
|  \\    /   O peration     | Version:  v1912                                 |
|   \\  /    A nd           | Website:  www.openfoam.com                      |
|    \\/     M anipulation  |                                                 |
\*---------------------------------------------------------------------------*/
FoamFile
{
    version     2.0;
    format      ascii;
    class       volScalarField;
    location    "80";
    object      k;
}
// * * * * * * * * * * * * * * * * * * * * * * * * * * * * * * * * * * * * * //

dimensions      [0 2 -2 0 0 0 0];


internalField   nonuniform List<scalar> 
57100
(
3.58931e-05
3.58911e-05
3.58911e-05
3.59957e-05
3.39296e-05
3.38891e-05
3.38891e-05
3.39625e-05
3.21576e-05
3.20078e-05
3.20078e-05
3.19522e-05
3.05344e-05
3.02288e-05
3.02288e-05
2.99886e-05
2.90326e-05
2.85534e-05
2.85533e-05
2.81231e-05
2.7635e-05
2.69866e-05
2.69865e-05
2.63918e-05
2.63304e-05
2.55305e-05
2.55303e-05
2.48089e-05
2.51108e-05
2.41845e-05
2.41843e-05
2.33804e-05
2.39705e-05
2.29503e-05
2.29501e-05
2.21075e-05
2.29053e-05
2.18267e-05
2.18265e-05
2.09896e-05
2.19118e-05
2.08115e-05
2.08113e-05
2.00175e-05
2.09859e-05
1.99014e-05
1.99012e-05
1.91856e-05
2.0124e-05
1.90955e-05
1.90953e-05
1.84928e-05
1.93233e-05
1.8389e-05
1.83889e-05
1.79357e-05
1.85852e-05
1.77802e-05
1.77802e-05
1.75105e-05
1.79e-05
1.72578e-05
1.72578e-05
1.71937e-05
1.72883e-05
1.68299e-05
1.68299e-05
1.69796e-05
1.66729e-05
1.64036e-05
1.64036e-05
1.67772e-05
1.61551e-05
1.6042e-05
1.60422e-05
1.65399e-05
1.59195e-05
1.59467e-05
1.59471e-05
1.65035e-05
1.5877e-05
1.59693e-05
1.59697e-05
1.65729e-05
1.58801e-05
1.5997e-05
1.59974e-05
1.66108e-05
1.58856e-05
1.60092e-05
1.60096e-05
1.66259e-05
1.58888e-05
1.6015e-05
1.60154e-05
1.66337e-05
1.58909e-05
1.60183e-05
1.60187e-05
1.6638e-05
1.58925e-05
1.60203e-05
1.60207e-05
1.66403e-05
1.58938e-05
1.60217e-05
1.60221e-05
1.66413e-05
1.58949e-05
1.60227e-05
1.60231e-05
1.66425e-05
1.58958e-05
1.60235e-05
1.60239e-05
1.66432e-05
1.58966e-05
1.60242e-05
1.60245e-05
1.66431e-05
3.63067e-05
3.6291e-05
3.6291e-05
3.63067e-05
3.6291e-05
3.6291e-05
3.6423e-05
3.6423e-05
3.6423e-05
3.6423e-05
3.6291e-05
3.6291e-05
3.63067e-05
3.6291e-05
3.6291e-05
3.63067e-05
3.59957e-05
3.4269e-05
3.58911e-05
3.58911e-05
3.43769e-05
3.43768e-05
3.59957e-05
3.4269e-05
3.58911e-05
3.58911e-05
3.43769e-05
3.43768e-05
3.58911e-05
3.43769e-05
3.43769e-05
3.59957e-05
3.4269e-05
3.58911e-05
3.43769e-05
3.43769e-05
3.4269e-05
3.39625e-05
3.22638e-05
3.3889e-05
3.3889e-05
3.24682e-05
3.24681e-05
3.39625e-05
3.22638e-05
3.3889e-05
3.3889e-05
3.24682e-05
3.24681e-05
3.3889e-05
3.24683e-05
3.24682e-05
3.39625e-05
3.22637e-05
3.3889e-05
3.24683e-05
3.24682e-05
3.22637e-05
3.19523e-05
3.02998e-05
3.20077e-05
3.20076e-05
3.06639e-05
3.06637e-05
3.19523e-05
3.02999e-05
3.20077e-05
3.20075e-05
3.0664e-05
3.06637e-05
3.20076e-05
3.06642e-05
3.06638e-05
3.19522e-05
3.02997e-05
3.20077e-05
3.06641e-05
3.0664e-05
3.02997e-05
2.99887e-05
2.84262e-05
3.02285e-05
3.02284e-05
2.89619e-05
2.89616e-05
2.99887e-05
2.84263e-05
3.02287e-05
3.02283e-05
2.8962e-05
2.89615e-05
3.02285e-05
2.89623e-05
2.89618e-05
2.99886e-05
2.84261e-05
3.02286e-05
2.89622e-05
2.8962e-05
2.84261e-05
2.81232e-05
2.66751e-05
2.8553e-05
2.85528e-05
2.73674e-05
2.73672e-05
2.81233e-05
2.66752e-05
2.85532e-05
2.85527e-05
2.73677e-05
2.7367e-05
2.85529e-05
2.7368e-05
2.73673e-05
2.81231e-05
2.66749e-05
2.85532e-05
2.73678e-05
2.73677e-05
2.66749e-05
2.63919e-05
2.50679e-05
2.6986e-05
2.69858e-05
2.58836e-05
2.58833e-05
2.63921e-05
2.50681e-05
2.69864e-05
2.69856e-05
2.58839e-05
2.58831e-05
2.6986e-05
2.58842e-05
2.58835e-05
2.63918e-05
2.50677e-05
2.69863e-05
2.58841e-05
2.58839e-05
2.50677e-05
2.48091e-05
2.36147e-05
2.55298e-05
2.55295e-05
2.45098e-05
2.45095e-05
2.48093e-05
2.36149e-05
2.55302e-05
2.55293e-05
2.45103e-05
2.45093e-05
2.55297e-05
2.45106e-05
2.45097e-05
2.4809e-05
2.36145e-05
2.55302e-05
2.45104e-05
2.45102e-05
2.36144e-05
2.33806e-05
2.23153e-05
2.41837e-05
2.41834e-05
2.32475e-05
2.32471e-05
2.33808e-05
2.23155e-05
2.41842e-05
2.41832e-05
2.32481e-05
2.32469e-05
2.41836e-05
2.32484e-05
2.32474e-05
2.33804e-05
2.23151e-05
2.41842e-05
2.32482e-05
2.3248e-05
2.2315e-05
2.21078e-05
2.11716e-05
2.29494e-05
2.2949e-05
2.20964e-05
2.20961e-05
2.2108e-05
2.11718e-05
2.295e-05
2.29488e-05
2.20971e-05
2.20958e-05
2.29493e-05
2.20975e-05
2.20963e-05
2.21076e-05
2.11714e-05
2.295e-05
2.20972e-05
2.20971e-05
2.11713e-05
2.09899e-05
2.01748e-05
2.18257e-05
2.18253e-05
2.10543e-05
2.10539e-05
2.099e-05
2.0175e-05
2.18264e-05
2.18251e-05
2.1055e-05
2.10537e-05
2.18256e-05
2.10554e-05
2.10542e-05
2.09896e-05
2.01746e-05
2.18264e-05
2.10552e-05
2.1055e-05
2.01745e-05
2.00178e-05
1.93192e-05
2.08105e-05
2.08102e-05
2.01181e-05
2.01178e-05
2.0018e-05
1.93194e-05
2.08113e-05
2.08099e-05
2.01189e-05
2.01176e-05
2.08104e-05
2.01193e-05
2.01181e-05
2.00176e-05
1.9319e-05
2.08113e-05
2.01191e-05
2.01189e-05
1.93189e-05
1.91859e-05
1.8598e-05
1.99003e-05
1.99e-05
1.92866e-05
1.92862e-05
1.91861e-05
1.85981e-05
1.99011e-05
1.98998e-05
1.92874e-05
1.9286e-05
1.99003e-05
1.92877e-05
1.92865e-05
1.91857e-05
1.85977e-05
1.99012e-05
1.92875e-05
1.92874e-05
1.85976e-05
1.84931e-05
1.80057e-05
1.90944e-05
1.90941e-05
1.85549e-05
1.85546e-05
1.84932e-05
1.80058e-05
1.90952e-05
1.90939e-05
1.85557e-05
1.85544e-05
1.90944e-05
1.8556e-05
1.85548e-05
1.84929e-05
1.80055e-05
1.90953e-05
1.85558e-05
1.85557e-05
1.80053e-05
1.7936e-05
1.75457e-05
1.8388e-05
1.83877e-05
1.79234e-05
1.79231e-05
1.79361e-05
1.75458e-05
1.83888e-05
1.83875e-05
1.79242e-05
1.7923e-05
1.8388e-05
1.79244e-05
1.79234e-05
1.79358e-05
1.75456e-05
1.83889e-05
1.79244e-05
1.79242e-05
1.75454e-05
1.75108e-05
1.72133e-05
1.77793e-05
1.77791e-05
1.73786e-05
1.73784e-05
1.75107e-05
1.72133e-05
1.77801e-05
1.77789e-05
1.73794e-05
1.73782e-05
1.77793e-05
1.73795e-05
1.73786e-05
1.75106e-05
1.72132e-05
1.77801e-05
1.73795e-05
1.73794e-05
1.72131e-05
1.71939e-05
1.69898e-05
1.7257e-05
1.72568e-05
1.69305e-05
1.69303e-05
1.71939e-05
1.69897e-05
1.72577e-05
1.72567e-05
1.69312e-05
1.69302e-05
1.7257e-05
1.69312e-05
1.69304e-05
1.71938e-05
1.69897e-05
1.72578e-05
1.69312e-05
1.69312e-05
1.69897e-05
1.69797e-05
1.67919e-05
1.68292e-05
1.6829e-05
1.65131e-05
1.65129e-05
1.69796e-05
1.67918e-05
1.68299e-05
1.68289e-05
1.65137e-05
1.65129e-05
1.68292e-05
1.65139e-05
1.6513e-05
1.69796e-05
1.6792e-05
1.683e-05
1.65139e-05
1.65138e-05
1.67919e-05
1.67772e-05
1.65466e-05
1.64029e-05
1.64028e-05
1.61105e-05
1.61103e-05
1.67771e-05
1.65464e-05
1.64035e-05
1.64029e-05
1.6111e-05
1.61103e-05
1.64029e-05
1.61109e-05
1.61104e-05
1.67773e-05
1.65466e-05
1.64036e-05
1.6111e-05
1.6111e-05
1.65467e-05
1.65397e-05
1.64882e-05
1.60418e-05
1.60415e-05
1.59497e-05
1.59495e-05
1.65394e-05
1.64875e-05
1.60422e-05
1.60415e-05
1.59501e-05
1.59494e-05
1.60417e-05
1.59498e-05
1.59497e-05
1.65397e-05
1.64878e-05
1.60423e-05
1.59502e-05
1.59504e-05
1.64881e-05
1.65036e-05
1.65548e-05
1.59465e-05
1.59464e-05
1.59595e-05
1.59595e-05
1.65029e-05
1.65541e-05
1.5947e-05
1.59463e-05
1.596e-05
1.59591e-05
1.59467e-05
1.59598e-05
1.59597e-05
1.65032e-05
1.65543e-05
1.59473e-05
1.59602e-05
1.59603e-05
1.65551e-05
1.65727e-05
1.65997e-05
1.59699e-05
1.59698e-05
1.59924e-05
1.59923e-05
1.65719e-05
1.65988e-05
1.59704e-05
1.59695e-05
1.59929e-05
1.59919e-05
1.59701e-05
1.59926e-05
1.59927e-05
1.65721e-05
1.65989e-05
1.59707e-05
1.5993e-05
1.59934e-05
1.66e-05
1.66105e-05
1.66172e-05
1.59975e-05
1.59974e-05
1.60072e-05
1.60073e-05
1.66096e-05
1.66164e-05
1.5998e-05
1.5997e-05
1.60078e-05
1.60068e-05
1.59978e-05
1.60075e-05
1.60078e-05
1.66096e-05
1.66164e-05
1.59985e-05
1.60079e-05
1.60084e-05
1.66177e-05
1.66254e-05
1.66255e-05
1.60094e-05
1.60095e-05
1.60138e-05
1.6014e-05
1.66245e-05
1.66248e-05
1.601e-05
1.60091e-05
1.60144e-05
1.60135e-05
1.60101e-05
1.60142e-05
1.60146e-05
1.66246e-05
1.66248e-05
1.60107e-05
1.60146e-05
1.60152e-05
1.66262e-05
1.6633e-05
1.66299e-05
1.6015e-05
1.60152e-05
1.60174e-05
1.60176e-05
1.66322e-05
1.66293e-05
1.60155e-05
1.60147e-05
1.60179e-05
1.60172e-05
1.60158e-05
1.60178e-05
1.60182e-05
1.66323e-05
1.66294e-05
1.60164e-05
1.60182e-05
1.60189e-05
1.66308e-05
1.66371e-05
1.66324e-05
1.60181e-05
1.60183e-05
1.60195e-05
1.60199e-05
1.66364e-05
1.66318e-05
1.60186e-05
1.60179e-05
1.60201e-05
1.60194e-05
1.60189e-05
1.602e-05
1.60204e-05
1.66365e-05
1.66319e-05
1.60196e-05
1.60204e-05
1.60211e-05
1.66333e-05
1.66394e-05
1.6634e-05
1.60201e-05
1.60204e-05
1.6021e-05
1.60215e-05
1.66388e-05
1.66333e-05
1.60206e-05
1.602e-05
1.60216e-05
1.6021e-05
1.60209e-05
1.60214e-05
1.6022e-05
1.66388e-05
1.66333e-05
1.60216e-05
1.60218e-05
1.60226e-05
1.66344e-05
1.66407e-05
1.66352e-05
1.60215e-05
1.60219e-05
1.60223e-05
1.60228e-05
1.664e-05
1.66344e-05
1.60221e-05
1.60215e-05
1.6023e-05
1.60224e-05
1.60224e-05
1.60225e-05
1.60233e-05
1.664e-05
1.66344e-05
1.60231e-05
1.60229e-05
1.60239e-05
1.66357e-05
1.6642e-05
1.66359e-05
1.60227e-05
1.60232e-05
1.60234e-05
1.6024e-05
1.66412e-05
1.6635e-05
1.60233e-05
1.60228e-05
1.60241e-05
1.60235e-05
1.60236e-05
1.60233e-05
1.60244e-05
1.66411e-05
1.6635e-05
1.60243e-05
1.60237e-05
1.6025e-05
1.66362e-05
1.66428e-05
1.6636e-05
1.60238e-05
1.60243e-05
1.60243e-05
1.60248e-05
1.66419e-05
1.66352e-05
1.60245e-05
1.60239e-05
1.6025e-05
1.60244e-05
1.60247e-05
1.6024e-05
1.60251e-05
1.66419e-05
1.66351e-05
1.60254e-05
1.60244e-05
1.60257e-05
1.6636e-05
1.6643e-05
1.60246e-05
1.60252e-05
1.66422e-05
1.60253e-05
1.60246e-05
1.60253e-05
1.66421e-05
1.60259e-05
3.73773e-05
3.73765e-05
3.7377e-05
3.7377e-05
3.73701e-05
3.73777e-05
3.73044e-05
3.73768e-05
3.73701e-05
3.73777e-05
3.73768e-05
3.73044e-05
3.73741e-05
3.72959e-05
3.72959e-05
3.58859e-05
4.08648e-05
3.66023e-05
4.51388e-05
5.51073e-05
6.48978e-05
3.58865e-05
4.08639e-05
3.66023e-05
4.51386e-05
3.58931e-05
3.58932e-05
3.58932e-05
3.44004e-05
3.44004e-05
3.44004e-05
3.44004e-05
3.52759e-05
3.56355e-05
3.58928e-05
3.53772e-05
3.60472e-05
3.42285e-05
3.53823e-05
5.51094e-05
6.49019e-05
3.5276e-05
3.58928e-05
3.56351e-05
3.53772e-05
3.60471e-05
3.53823e-05
3.42295e-05
3.65893e-05
3.65898e-05
3.52792e-05
3.40769e-05
3.4076e-05
3.39687e-05
5.13477e-05
3.46783e-05
5.4614e-05
7.65518e-05
8.08599e-05
3.39713e-05
5.13486e-05
3.46778e-05
5.46145e-05
3.39296e-05
3.39296e-05
3.39296e-05
3.25853e-05
3.25853e-05
3.25853e-05
3.25853e-05
3.30538e-05
3.24563e-05
3.39297e-05
3.34087e-05
3.38955e-05
3.15549e-05
3.34679e-05
7.6553e-05
8.08638e-05
3.30539e-05
3.39297e-05
3.24553e-05
3.34087e-05
3.38952e-05
3.34679e-05
3.15567e-05
3.17134e-05
3.17127e-05
3.3264e-05
3.09243e-05
3.09227e-05
3.22536e-05
5.91648e-05
3.29256e-05
6.14318e-05
8.43965e-05
8.50681e-05
3.2256e-05
5.91665e-05
3.29233e-05
6.14338e-05
3.21576e-05
3.21576e-05
3.21576e-05
3.0928e-05
3.09279e-05
3.09279e-05
3.0928e-05
3.07888e-05
3.04924e-05
3.21376e-05
3.15537e-05
3.16357e-05
2.98645e-05
3.17101e-05
8.43985e-05
8.50706e-05
3.07888e-05
3.21376e-05
3.04923e-05
3.15537e-05
3.16352e-05
3.17101e-05
2.98655e-05
3.02108e-05
3.02099e-05
3.12734e-05
2.9997e-05
2.99956e-05
3.0757e-05
6.435e-05
3.13539e-05
6.57219e-05
8.46171e-05
8.39033e-05
3.07579e-05
6.43516e-05
3.13537e-05
6.57252e-05
3.05344e-05
3.05344e-05
3.05344e-05
2.93977e-05
2.93977e-05
2.93977e-05
2.93977e-05
2.85999e-05
2.91201e-05
3.04693e-05
2.98e-05
2.94113e-05
2.86539e-05
3.00685e-05
8.46179e-05
8.39049e-05
2.85998e-05
3.04692e-05
2.91207e-05
2.97999e-05
2.94108e-05
3.00684e-05
2.86548e-05
2.99291e-05
2.9928e-05
2.9349e-05
3.0022e-05
3.00209e-05
2.95222e-05
6.73226e-05
3.00047e-05
6.80335e-05
8.22164e-05
8.12108e-05
2.95231e-05
6.73248e-05
3.0005e-05
6.80372e-05
2.90326e-05
2.90325e-05
2.90326e-05
2.79753e-05
2.79753e-05
2.79753e-05
2.79753e-05
2.65667e-05
2.8104e-05
2.89023e-05
2.81514e-05
2.73146e-05
2.77634e-05
2.85253e-05
8.22169e-05
8.12116e-05
2.65667e-05
2.89023e-05
2.81044e-05
2.81513e-05
2.73141e-05
2.85252e-05
2.77644e-05
3.04332e-05
3.04325e-05
2.75339e-05
3.07597e-05
3.07591e-05
2.86088e-05
6.87485e-05
2.89518e-05
6.90423e-05
7.94359e-05
7.85215e-05
2.86097e-05
6.87515e-05
2.89521e-05
6.90458e-05
2.7635e-05
2.76349e-05
2.7635e-05
2.66483e-05
2.66483e-05
2.66482e-05
2.66483e-05
2.47425e-05
2.73906e-05
2.74281e-05
2.66122e-05
2.5411e-05
2.71769e-05
2.70737e-05
7.9435e-05
7.85231e-05
2.47426e-05
2.74281e-05
2.73909e-05
2.66121e-05
2.54105e-05
2.70735e-05
2.71778e-05
3.15488e-05
3.15488e-05
2.58524e-05
3.21083e-05
3.21086e-05
2.80643e-05
6.92601e-05
2.82498e-05
6.93218e-05
7.7005e-05
7.62751e-05
2.80651e-05
6.92636e-05
2.825e-05
6.93251e-05
2.63304e-05
2.63303e-05
2.63303e-05
2.54081e-05
2.54081e-05
2.5408e-05
2.5408e-05
2.31627e-05
2.69891e-05
2.60438e-05
2.51836e-05
2.3743e-05
2.69102e-05
2.57116e-05
7.70033e-05
7.62771e-05
2.31629e-05
2.60437e-05
2.69895e-05
2.51834e-05
2.37425e-05
2.57114e-05
2.69109e-05
3.31758e-05
3.31768e-05
2.43219e-05
3.39021e-05
3.39033e-05
2.79207e-05
6.93136e-05
2.7934e-05
6.92871e-05
7.50716e-05
7.4524e-05
2.7921e-05
6.93171e-05
2.79341e-05
6.92905e-05
2.51108e-05
2.51107e-05
2.51108e-05
2.42484e-05
2.42484e-05
2.42483e-05
2.42483e-05
2.18458e-05
2.69252e-05
2.47481e-05
2.38655e-05
2.2334e-05
2.69737e-05
2.4438e-05
7.507e-05
7.45259e-05
2.1846e-05
2.4748e-05
2.69253e-05
2.38653e-05
2.23334e-05
2.44378e-05
2.69744e-05
3.51788e-05
3.5181e-05
2.29449e-05
3.60136e-05
3.60166e-05
2.81668e-05
6.9215e-05
2.80397e-05
6.9183e-05
7.36026e-05
7.32056e-05
2.8167e-05
6.92186e-05
2.80393e-05
6.91867e-05
2.39706e-05
2.39704e-05
2.39705e-05
2.31649e-05
2.31649e-05
2.31647e-05
2.31648e-05
2.08001e-05
2.71932e-05
2.35401e-05
2.26592e-05
2.11931e-05
2.73488e-05
2.32514e-05
7.36019e-05
7.32059e-05
2.08003e-05
2.354e-05
2.71934e-05
2.2659e-05
2.11926e-05
2.32512e-05
2.73497e-05
3.7429e-05
3.74326e-05
2.17241e-05
3.83295e-05
3.83344e-05
2.88319e-05
6.91339e-05
2.85642e-05
6.91225e-05
7.25227e-05
7.22369e-05
2.88322e-05
6.91378e-05
2.85638e-05
6.91265e-05
2.29053e-05
2.29052e-05
2.29053e-05
2.21536e-05
2.21536e-05
2.21534e-05
2.21535e-05
2.00277e-05
2.77749e-05
2.24161e-05
2.15629e-05
2.03177e-05
2.80303e-05
2.21482e-05
7.2523e-05
7.22371e-05
2.00277e-05
2.2416e-05
2.77753e-05
2.15626e-05
2.03175e-05
2.2148e-05
2.80314e-05
3.98171e-05
3.98219e-05
2.06549e-05
4.07439e-05
4.07507e-05
2.99161e-05
6.91208e-05
2.95089e-05
6.91349e-05
7.17464e-05
7.15448e-05
2.99165e-05
6.91251e-05
2.95086e-05
6.91393e-05
2.19118e-05
2.19116e-05
2.19118e-05
2.1211e-05
2.1211e-05
2.12107e-05
2.12109e-05
1.95229e-05
2.8646e-05
2.1376e-05
2.05744e-05
1.97038e-05
2.89908e-05
2.11292e-05
7.17468e-05
7.15452e-05
1.9523e-05
2.13759e-05
2.86466e-05
2.05742e-05
1.97038e-05
2.11289e-05
2.8992e-05
4.22449e-05
4.22511e-05
1.97295e-05
4.31642e-05
4.31726e-05
3.14072e-05
6.917e-05
3.08663e-05
6.92064e-05
7.11991e-05
7.10595e-05
3.14078e-05
6.91749e-05
3.08662e-05
6.92113e-05
2.0986e-05
2.09858e-05
2.09859e-05
2.03343e-05
2.03343e-05
2.0334e-05
2.03342e-05
1.92829e-05
2.97722e-05
2.04188e-05
1.96905e-05
1.93543e-05
3.01932e-05
2.01925e-05
7.11996e-05
7.10599e-05
1.92831e-05
2.04186e-05
2.9773e-05
1.96903e-05
1.93544e-05
2.01923e-05
3.01946e-05
4.46268e-05
4.46343e-05
1.89423e-05
4.55082e-05
4.55182e-05
3.32842e-05
6.92635e-05
3.26101e-05
6.93095e-05
7.08179e-05
7.07215e-05
3.32933e-05
6.92688e-05
3.26015e-05
6.93147e-05
2.01241e-05
2.01238e-05
2.0124e-05
1.95172e-05
1.95171e-05
1.95169e-05
1.9517e-05
1.93034e-05
3.11125e-05
1.95426e-05
1.89094e-05
1.92719e-05
3.15945e-05
1.93354e-05
7.08183e-05
7.07218e-05
1.93035e-05
1.95425e-05
3.11134e-05
1.89092e-05
1.92719e-05
1.93352e-05
3.15961e-05
4.68922e-05
4.69009e-05
1.82852e-05
4.77126e-05
4.77239e-05
3.54907e-05
6.9372e-05
3.46814e-05
6.9415e-05
7.05485e-05
7.04799e-05
3.54976e-05
6.93775e-05
3.46748e-05
6.94204e-05
1.93234e-05
1.93232e-05
1.93233e-05
1.87656e-05
1.87655e-05
1.87653e-05
1.87654e-05
1.95731e-05
3.26179e-05
1.87431e-05
1.82285e-05
1.94561e-05
3.31422e-05
1.8556e-05
7.05488e-05
7.04802e-05
1.95734e-05
1.8743e-05
3.26189e-05
1.82284e-05
1.94562e-05
1.85559e-05
3.31439e-05
4.89878e-05
4.89973e-05
1.7759e-05
4.97281e-05
4.97401e-05
3.79053e-05
6.94698e-05
3.70217e-05
6.94998e-05
7.03647e-05
7.03216e-05
3.79106e-05
6.94754e-05
3.7018e-05
6.95054e-05
1.85854e-05
1.85851e-05
1.85853e-05
1.80644e-05
1.80643e-05
1.80641e-05
1.80642e-05
2.0091e-05
3.42268e-05
1.80197e-05
1.76413e-05
1.98942e-05
3.47642e-05
1.78487e-05
7.03651e-05
7.03219e-05
2.00914e-05
1.80196e-05
3.42281e-05
1.76412e-05
1.98946e-05
1.78486e-05
3.47661e-05
5.08704e-05
5.08804e-05
1.73643e-05
5.1491e-05
5.15041e-05
4.03699e-05
6.95104e-05
3.95e-05
6.95248e-05
7.02323e-05
7.02014e-05
4.03742e-05
6.95162e-05
3.94978e-05
6.95307e-05
1.79001e-05
1.78999e-05
1.79001e-05
1.74383e-05
1.74381e-05
1.74379e-05
1.74381e-05
2.08198e-05
3.58137e-05
1.73631e-05
1.71431e-05
2.05613e-05
3.62985e-05
1.72135e-05
7.02325e-05
7.02014e-05
2.08203e-05
1.7363e-05
3.5815e-05
1.71431e-05
2.05616e-05
1.72134e-05
3.63005e-05
5.2398e-05
5.24093e-05
1.70892e-05
5.2902e-05
5.29159e-05
4.22147e-05
6.95312e-05
4.16908e-05
6.95171e-05
7.01417e-05
7.01179e-05
4.22162e-05
6.95376e-05
4.169e-05
6.95232e-05
1.72885e-05
1.72883e-05
1.72884e-05
1.6828e-05
1.68278e-05
1.68276e-05
1.68277e-05
2.15821e-05
3.71865e-05
1.67926e-05
1.67278e-05
2.13539e-05
3.75323e-05
1.66548e-05
7.01414e-05
7.01177e-05
2.1582e-05
1.67926e-05
3.71886e-05
1.67278e-05
2.13543e-05
1.66547e-05
3.75348e-05
5.35823e-05
5.35939e-05
1.68993e-05
5.38135e-05
5.38269e-05
4.29171e-05
6.94397e-05
4.27772e-05
6.9399e-05
7.00704e-05
7.00588e-05
4.29214e-05
6.94444e-05
4.27787e-05
6.94036e-05
1.66731e-05
1.6673e-05
1.66731e-05
1.62612e-05
1.6261e-05
1.62608e-05
1.6261e-05
2.19833e-05
3.80008e-05
1.62317e-05
1.62963e-05
2.1908e-05
3.81131e-05
1.60962e-05
7.00702e-05
7.00581e-05
2.1984e-05
1.62316e-05
3.80009e-05
1.62964e-05
2.19081e-05
1.60962e-05
3.81135e-05
5.40142e-05
5.40246e-05
1.66635e-05
5.40589e-05
5.40699e-05
4.31058e-05
6.93386e-05
4.3065e-05
6.93234e-05
7.00357e-05
7.00346e-05
4.31111e-05
6.93443e-05
4.30696e-05
6.93287e-05
1.61553e-05
1.61552e-05
1.61553e-05
1.59544e-05
1.59544e-05
1.59543e-05
1.59544e-05
2.21147e-05
3.82317e-05
1.5769e-05
1.59931e-05
2.20774e-05
3.82596e-05
1.56974e-05
7.00334e-05
7.0032e-05
2.21166e-05
1.5769e-05
3.82351e-05
1.59934e-05
2.20793e-05
1.56975e-05
3.82642e-05
5.40758e-05
5.40863e-05
1.64908e-05
5.40737e-05
5.40844e-05
4.31194e-05
6.93056e-05
4.31331e-05
6.92998e-05
7.00227e-05
7.00246e-05
4.31286e-05
6.93108e-05
4.31419e-05
6.93045e-05
1.592e-05
1.59198e-05
1.592e-05
1.58784e-05
1.5878e-05
1.58779e-05
1.58781e-05
2.22627e-05
3.83116e-05
1.55878e-05
1.59472e-05
2.22242e-05
3.8309e-05
1.55783e-05
7.00193e-05
7.00214e-05
2.22655e-05
1.55879e-05
3.83184e-05
1.59476e-05
2.22265e-05
1.55784e-05
3.83158e-05
5.40659e-05
5.4077e-05
1.65189e-05
5.40576e-05
5.40706e-05
4.30982e-05
6.92923e-05
4.31101e-05
6.92906e-05
7.00168e-05
7.00208e-05
4.31075e-05
6.92972e-05
4.31194e-05
6.92959e-05
1.58767e-05
1.58765e-05
1.58768e-05
1.5879e-05
1.58785e-05
1.58784e-05
1.58786e-05
2.23147e-05
3.83197e-05
1.5576e-05
1.59791e-05
2.23121e-05
3.83128e-05
1.55794e-05
7.00132e-05
7.00176e-05
2.2318e-05
1.55762e-05
3.83259e-05
1.59796e-05
2.23153e-05
1.55796e-05
3.83193e-05
5.40473e-05
5.406e-05
1.65827e-05
5.40404e-05
5.40534e-05
4.30929e-05
6.92881e-05
4.3098e-05
6.92882e-05
7.00158e-05
7.00206e-05
4.31015e-05
6.92942e-05
4.31066e-05
6.92948e-05
1.58804e-05
1.58802e-05
1.58805e-05
1.58848e-05
1.58845e-05
1.58844e-05
1.58847e-05
2.23293e-05
3.83226e-05
1.55899e-05
1.60018e-05
2.23311e-05
3.83161e-05
1.55938e-05
7.00121e-05
7.00173e-05
2.23323e-05
1.559e-05
3.83287e-05
1.60023e-05
2.23342e-05
1.5594e-05
3.83225e-05
5.40352e-05
5.40478e-05
1.66107e-05
5.40331e-05
5.40447e-05
4.30958e-05
6.92881e-05
4.30999e-05
6.92887e-05
7.00161e-05
7.00214e-05
4.31048e-05
6.92951e-05
4.3107e-05
6.9296e-05
1.58858e-05
1.58857e-05
1.58861e-05
1.58883e-05
1.58882e-05
1.58881e-05
1.58885e-05
2.23384e-05
3.83264e-05
1.55994e-05
1.60117e-05
2.23414e-05
3.832e-05
1.56015e-05
7.00126e-05
7.00181e-05
2.23413e-05
1.55995e-05
3.83321e-05
1.60121e-05
2.23442e-05
1.56017e-05
3.83259e-05
5.40358e-05
5.40466e-05
1.66226e-05
5.4035e-05
5.40464e-05
4.30984e-05
6.92887e-05
4.31023e-05
6.92891e-05
7.00171e-05
7.00222e-05
4.3107e-05
6.9296e-05
4.31112e-05
6.92966e-05
1.58891e-05
1.58889e-05
1.58893e-05
1.58905e-05
1.58906e-05
1.58904e-05
1.58908e-05
2.23443e-05
3.83295e-05
1.56041e-05
1.60164e-05
2.23484e-05
3.83225e-05
1.56054e-05
7.00134e-05
7.00187e-05
2.23471e-05
1.56043e-05
3.83351e-05
1.60168e-05
2.23512e-05
1.56056e-05
3.83285e-05
5.40362e-05
5.40497e-05
1.66289e-05
5.40355e-05
5.40487e-05
4.30994e-05
6.92887e-05
4.31039e-05
6.92891e-05
7.00177e-05
7.00226e-05
4.31082e-05
6.92963e-05
4.31127e-05
6.92969e-05
1.58913e-05
1.58911e-05
1.58915e-05
1.58922e-05
1.58924e-05
1.58922e-05
1.58926e-05
2.23474e-05
3.83314e-05
1.56069e-05
1.60192e-05
2.23525e-05
3.83239e-05
1.56078e-05
7.00138e-05
7.00191e-05
2.23503e-05
1.5607e-05
3.8337e-05
1.60196e-05
2.23553e-05
1.5608e-05
3.83299e-05
5.40371e-05
5.40489e-05
1.66323e-05
5.40365e-05
5.40484e-05
4.30999e-05
6.92886e-05
4.31047e-05
6.9289e-05
7.0018e-05
7.00228e-05
4.31088e-05
6.92966e-05
4.31133e-05
6.92971e-05
1.5893e-05
1.58929e-05
1.58932e-05
1.58935e-05
1.58939e-05
1.58938e-05
1.58942e-05
2.23487e-05
3.83322e-05
1.56087e-05
1.6021e-05
2.23544e-05
3.83246e-05
1.56094e-05
7.00139e-05
7.00191e-05
2.23516e-05
1.56088e-05
3.83378e-05
1.60214e-05
2.23572e-05
1.56096e-05
3.83305e-05
5.40376e-05
5.40493e-05
1.6634e-05
5.40368e-05
5.40488e-05
4.31001e-05
6.92886e-05
4.31049e-05
6.92889e-05
7.0018e-05
7.00228e-05
4.31091e-05
6.92968e-05
4.31137e-05
6.92972e-05
1.58945e-05
1.58943e-05
1.58947e-05
1.58946e-05
1.58954e-05
1.58952e-05
1.58956e-05
2.23492e-05
3.83325e-05
1.56099e-05
1.60222e-05
2.23551e-05
3.83248e-05
1.56105e-05
7.0014e-05
7.00192e-05
2.23521e-05
1.56101e-05
3.83382e-05
1.60226e-05
2.23579e-05
1.56107e-05
3.83308e-05
5.40377e-05
5.40495e-05
1.6635e-05
5.40368e-05
5.40487e-05
4.31002e-05
6.92885e-05
4.31051e-05
6.92888e-05
7.00181e-05
7.00229e-05
4.31092e-05
6.92969e-05
4.31139e-05
6.92974e-05
1.5896e-05
1.58959e-05
1.58963e-05
1.58956e-05
1.58966e-05
1.58965e-05
1.58969e-05
2.23494e-05
3.83327e-05
1.56109e-05
1.60231e-05
2.23554e-05
3.8325e-05
1.56114e-05
7.0014e-05
7.00192e-05
2.23523e-05
1.56111e-05
3.83383e-05
1.60235e-05
2.23582e-05
1.56116e-05
3.8331e-05
5.40379e-05
5.40496e-05
1.66357e-05
5.4037e-05
5.40489e-05
4.31002e-05
6.92884e-05
4.31051e-05
6.92888e-05
7.00181e-05
7.00229e-05
4.31092e-05
6.9297e-05
4.31139e-05
6.92976e-05
1.58974e-05
1.58972e-05
1.58976e-05
1.58965e-05
1.58974e-05
1.58973e-05
1.58976e-05
2.23496e-05
3.83328e-05
1.56117e-05
1.60239e-05
2.23555e-05
3.83251e-05
1.56122e-05
7.0014e-05
7.00192e-05
2.23524e-05
1.56119e-05
3.83385e-05
1.60243e-05
2.23584e-05
1.56124e-05
3.8331e-05
5.40378e-05
5.40495e-05
1.66365e-05
5.40368e-05
5.40489e-05
4.31e-05
6.92883e-05
4.31051e-05
6.92887e-05
7.00181e-05
7.00229e-05
4.31076e-05
6.92973e-05
4.3114e-05
6.92978e-05
1.58978e-05
1.58975e-05
1.58978e-05
2.235e-05
3.83329e-05
1.56124e-05
1.60243e-05
2.23556e-05
3.83278e-05
1.56127e-05
7.0014e-05
1.56126e-05
3.83385e-05
2.23584e-05
5.40378e-05
5.40497e-05
3.73741e-05
3.72959e-05
3.72959e-05
5.31146e-05
3.71931e-05
5.31164e-05
3.71931e-05
3.7093e-05
3.7246e-05
3.72472e-05
3.71762e-05
3.71762e-05
3.73701e-05
3.73777e-05
3.73044e-05
3.73768e-05
3.73701e-05
3.73777e-05
3.73044e-05
3.73768e-05
3.71731e-05
3.94118e-05
3.71676e-05
3.67257e-05
3.71731e-05
3.94117e-05
3.71676e-05
3.67258e-05
3.70959e-05
3.71022e-05
3.60208e-05
3.64211e-05
3.71634e-05
3.71109e-05
3.63054e-05
3.70959e-05
3.71022e-05
3.60213e-05
3.64211e-05
3.71634e-05
3.71109e-05
3.63054e-05
3.73741e-05
3.72959e-05
3.72959e-05
5.31147e-05
3.71931e-05
3.7093e-05
3.72477e-05
3.72454e-05
3.71762e-05
3.71762e-05
5.31163e-05
3.71932e-05
3.73701e-05
3.73777e-05
3.73044e-05
3.73768e-05
3.73701e-05
3.73777e-05
3.73768e-05
3.73044e-05
3.71731e-05
3.94122e-05
3.71676e-05
3.67259e-05
3.70959e-05
3.71022e-05
3.6021e-05
3.64211e-05
3.71634e-05
3.71109e-05
3.63055e-05
3.71731e-05
3.94124e-05
3.71676e-05
3.67257e-05
3.70959e-05
3.71022e-05
3.64211e-05
3.60209e-05
3.71109e-05
3.71634e-05
3.63054e-05
3.73773e-05
3.73765e-05
3.7377e-05
3.7377e-05
3.73773e-05
3.73765e-05
3.7377e-05
3.7377e-05
3.73773e-05
3.73765e-05
3.7377e-05
3.7377e-05
3.71133e-05
3.71099e-05
3.64241e-05
3.64241e-05
3.71125e-05
3.71125e-05
3.64261e-05
3.71133e-05
3.71099e-05
3.64241e-05
3.64241e-05
3.71125e-05
3.71125e-05
3.64261e-05
3.71133e-05
3.71099e-05
3.64241e-05
3.64241e-05
3.71125e-05
3.71125e-05
3.64261e-05
3.71133e-05
3.71099e-05
3.64241e-05
3.64241e-05
3.71125e-05
3.71125e-05
3.64261e-05
3.73701e-05
3.73777e-05
3.73768e-05
3.73044e-05
3.70959e-05
3.71022e-05
3.60207e-05
3.64211e-05
3.71634e-05
3.71109e-05
3.63054e-05
3.71731e-05
3.94119e-05
3.71676e-05
3.67259e-05
3.70959e-05
3.71022e-05
3.64211e-05
3.60213e-05
3.71109e-05
3.71634e-05
3.63054e-05
3.71731e-05
3.94125e-05
3.71676e-05
3.67256e-05
3.73741e-05
3.72959e-05
3.72959e-05
5.31169e-05
3.71931e-05
3.7093e-05
3.72464e-05
3.72475e-05
3.71762e-05
3.71762e-05
5.3117e-05
3.71931e-05
3.73701e-05
3.73777e-05
3.73768e-05
3.73044e-05
3.70958e-05
3.71022e-05
3.64211e-05
3.60213e-05
3.71109e-05
3.71634e-05
3.63055e-05
3.70958e-05
3.71022e-05
3.64211e-05
3.60213e-05
3.71109e-05
3.71634e-05
3.63055e-05
3.71731e-05
3.94124e-05
3.71676e-05
3.67257e-05
3.71731e-05
3.94124e-05
3.71676e-05
3.67259e-05
3.7093e-05
3.72473e-05
3.72478e-05
3.71762e-05
3.71762e-05
5.31168e-05
3.71931e-05
5.31167e-05
3.71931e-05
5.51073e-05
6.48976e-05
5.51091e-05
6.49006e-05
3.65905e-05
3.65905e-05
3.52791e-05
3.40753e-05
3.40756e-05
7.47302e-05
6.76855e-05
7.4734e-05
6.76893e-05
3.49731e-05
3.20373e-05
3.20373e-05
3.34676e-05
3.34667e-05
3.58859e-05
4.08643e-05
3.66024e-05
4.51372e-05
3.52758e-05
3.56356e-05
3.58928e-05
3.53772e-05
3.60472e-05
3.4229e-05
3.53823e-05
3.52759e-05
3.56351e-05
3.58928e-05
3.53772e-05
3.60472e-05
3.42299e-05
3.53823e-05
3.56369e-05
5.02039e-05
4.64489e-05
3.48935e-05
3.56372e-05
5.02029e-05
4.64486e-05
3.4894e-05
3.49993e-05
3.48728e-05
3.27117e-05
3.4402e-05
3.38545e-05
3.4886e-05
3.41796e-05
3.49993e-05
3.48728e-05
3.27125e-05
3.4402e-05
3.38535e-05
3.48859e-05
3.41797e-05
3.65896e-05
3.65917e-05
3.52791e-05
3.40767e-05
3.40731e-05
5.51085e-05
6.49001e-05
7.47308e-05
6.76879e-05
3.49731e-05
3.20384e-05
3.20348e-05
3.34658e-05
3.34693e-05
7.47329e-05
6.7687e-05
3.5276e-05
3.56353e-05
3.58928e-05
3.53772e-05
3.60471e-05
3.42291e-05
3.53823e-05
3.58862e-05
4.0865e-05
3.6602e-05
4.514e-05
3.52759e-05
3.58928e-05
3.56356e-05
3.53772e-05
3.60471e-05
3.53823e-05
3.42289e-05
3.56366e-05
5.02039e-05
4.64485e-05
3.48947e-05
3.49992e-05
3.48728e-05
3.27115e-05
3.4402e-05
3.38537e-05
3.4886e-05
3.41799e-05
3.56366e-05
5.02059e-05
4.64502e-05
3.48943e-05
3.49992e-05
3.48728e-05
3.4402e-05
3.27113e-05
3.4886e-05
3.38541e-05
3.41798e-05
3.58861e-05
4.08628e-05
3.66023e-05
4.51393e-05
3.52759e-05
3.58928e-05
3.56352e-05
3.53772e-05
3.60472e-05
3.53823e-05
3.42299e-05
3.58861e-05
4.08659e-05
3.66019e-05
4.51388e-05
3.49994e-05
3.48728e-05
3.27107e-05
3.4402e-05
3.38542e-05
3.4886e-05
3.41798e-05
3.56371e-05
5.02036e-05
4.64464e-05
3.4894e-05
3.49993e-05
3.48728e-05
3.4402e-05
3.27125e-05
3.4886e-05
3.38533e-05
3.41797e-05
3.56367e-05
5.02042e-05
4.64509e-05
3.48939e-05
3.65909e-05
3.65895e-05
3.52791e-05
3.40743e-05
3.40761e-05
5.51095e-05
6.48992e-05
7.47353e-05
6.76885e-05
3.49732e-05
3.20358e-05
3.20391e-05
3.34678e-05
3.34662e-05
7.47324e-05
6.76894e-05
3.5276e-05
3.58928e-05
3.56351e-05
3.53772e-05
3.60471e-05
3.53823e-05
3.42296e-05
3.58868e-05
4.08652e-05
3.66018e-05
4.51393e-05
3.58871e-05
4.08643e-05
3.66022e-05
4.51382e-05
3.49991e-05
3.48729e-05
3.4402e-05
3.27123e-05
3.4886e-05
3.38536e-05
3.41798e-05
3.49992e-05
3.48728e-05
3.4402e-05
3.27122e-05
3.4886e-05
3.38532e-05
3.418e-05
3.56358e-05
5.02052e-05
4.64505e-05
3.48945e-05
3.56361e-05
5.02046e-05
4.64485e-05
3.48948e-05
5.51091e-05
6.4899e-05
5.51091e-05
6.48997e-05
3.49731e-05
3.20389e-05
3.20376e-05
3.34655e-05
3.34658e-05
7.47314e-05
6.76887e-05
7.47329e-05
6.76903e-05
7.65492e-05
8.08589e-05
7.65534e-05
8.08632e-05
3.17155e-05
3.17132e-05
3.3264e-05
3.09217e-05
3.09219e-05
8.4005e-05
8.18533e-05
8.40087e-05
8.18568e-05
3.29547e-05
3.03044e-05
3.03047e-05
3.07445e-05
3.07409e-05
3.39693e-05
5.13475e-05
3.46784e-05
5.4614e-05
3.30536e-05
3.24564e-05
3.39297e-05
3.34086e-05
3.38954e-05
3.15557e-05
3.34679e-05
3.30538e-05
3.24552e-05
3.39297e-05
3.34085e-05
3.38955e-05
3.15568e-05
3.34679e-05
3.37813e-05
5.8359e-05
5.55921e-05
3.3086e-05
3.37814e-05
5.83592e-05
5.55916e-05
3.30865e-05
3.27683e-05
3.29351e-05
3.06292e-05
3.25726e-05
3.13734e-05
3.30159e-05
3.19177e-05
3.27684e-05
3.2935e-05
3.06298e-05
3.25726e-05
3.13719e-05
3.30159e-05
3.19179e-05
3.17129e-05
3.17166e-05
3.3264e-05
3.0923e-05
3.09184e-05
7.65507e-05
8.08611e-05
8.40059e-05
8.18554e-05
3.29547e-05
3.03055e-05
3.03017e-05
3.07412e-05
3.07453e-05
8.40069e-05
8.18547e-05
3.3054e-05
3.24555e-05
3.39297e-05
3.34086e-05
3.38953e-05
3.15561e-05
3.34679e-05
3.39708e-05
5.13495e-05
3.46777e-05
5.46173e-05
3.30538e-05
3.39297e-05
3.24562e-05
3.34085e-05
3.38952e-05
3.34679e-05
3.15552e-05
3.37791e-05
5.83599e-05
5.55934e-05
3.30889e-05
3.27681e-05
3.29352e-05
3.0629e-05
3.25726e-05
3.13718e-05
3.30159e-05
3.19181e-05
3.3779e-05
5.83625e-05
5.55938e-05
3.30884e-05
3.2768e-05
3.2935e-05
3.25726e-05
3.06285e-05
3.30159e-05
3.13732e-05
3.19179e-05
3.39697e-05
5.13466e-05
3.46783e-05
5.46141e-05
3.30537e-05
3.39297e-05
3.24555e-05
3.34086e-05
3.38954e-05
3.34679e-05
3.15572e-05
3.39689e-05
5.13495e-05
3.46784e-05
5.46151e-05
3.27685e-05
3.29352e-05
3.06283e-05
3.25727e-05
3.1373e-05
3.30159e-05
3.1918e-05
3.37808e-05
5.83596e-05
5.55908e-05
3.30866e-05
3.27683e-05
3.29351e-05
3.25726e-05
3.063e-05