/*--------------------------------*- C++ -*----------------------------------*\
| =========                 |                                                 |
| \\      /  F ield         | OpenFOAM: The Open Source CFD Toolbox           |
|  \\    /   O peration     | Version:  v1912                                 |
|   \\  /    A nd           | Website:  www.openfoam.com                      |
|    \\/     M anipulation  |                                                 |
\*---------------------------------------------------------------------------*/
FoamFile
{
    version     2.0;
    format      ascii;
    class       volScalarField;
    location    "80";
    object      nut;
}
// * * * * * * * * * * * * * * * * * * * * * * * * * * * * * * * * * * * * * //

dimensions      [0 2 -1 0 0 0 0];


internalField   nonuniform List<scalar> 
57100
(
0.000233973
0.000233114
0.000233114
0.000233425
0.000232531
0.000227796
0.000227795
0.000223863
0.000230513
0.000220312
0.000220309
0.000209106
0.000227795
0.000211659
0.000211655
0.000193791
0.000224429
0.000202646
0.00020264
0.000179722
0.000220548
0.00019377
0.000193763
0.000167363
0.0002163
0.000185274
0.000185266
0.000156618
0.000211816
0.000177231
0.000177223
0.000147244
0.000207202
0.000169684
0.000169675
0.000138994
0.00020254
0.000162604
0.000162595
0.000131664
0.000197885
0.000155941
0.000155932
0.000125007
0.000193267
0.000149633
0.000149624
0.000118865
0.000188674
0.000143652
0.000143643
0.000113201
0.000184145
0.000137945
0.000137936
0.000107965
0.000179714
0.000132489
0.00013248
0.000103159
0.000175408
0.000127351
0.00012734
9.87256e-05
0.000171532
0.000123042
0.000123031
9.52798e-05
0.000168009
0.000119619
0.000119607
9.30248e-05
0.00016557
0.000117309
0.000117298
9.13734e-05
0.000164917
0.000116791
0.00011678
9.11953e-05
0.000165205
0.000116979
0.000116967
9.15364e-05
0.000165353
0.000117186
0.000117175
9.17504e-05
0.000165436
0.000117268
0.000117258
9.18267e-05
0.000165468
0.000117301
0.000117291
9.18656e-05
0.000165486
0.000117319
0.000117309
9.18856e-05
0.000165501
0.000117331
0.000117322
9.18966e-05
0.000165514
0.000117341
0.000117331
9.19019e-05
0.000165526
0.000117349
0.000117339
9.19106e-05
0.000165537
0.000117358
0.000117349
9.19165e-05
0.000165551
0.000117367
0.000117356
9.19158e-05
0.000234265
0.000234448
0.000234449
0.000234265
0.000234449
0.000234449
0.000234274
0.000234274
0.000234274
0.000234274
0.000234448
0.000234448
0.000234265
0.000234448
0.000234449
0.000234265
0.000233425
0.000226204
0.000233114
0.000233112
0.000229354
0.000229349
0.000233425
0.000226205
0.000233112
0.000233111
0.000229351
0.000229348
0.000233113
0.000229356
0.000229353
0.000233425
0.000226202
0.000233112
0.000229356
0.000229351
0.000226202
0.000223863
0.000212236
0.000227792
0.000227787
0.000222323
0.000222318
0.000223864
0.00021224
0.00022779
0.000227786
0.000222323
0.000222315
0.000227791
0.00022233
0.000222322
0.000223862
0.000212233
0.00022779
0.000222327
0.000222322
0.000212234
0.000209108
0.000197072
0.000220304
0.000220299
0.000213872
0.000213867
0.000209109
0.000197077
0.000220305
0.000220295
0.000213876
0.000213862
0.000220302
0.000213883
0.00021387
0.000209104
0.000197068
0.000220304
0.000213879
0.000213875
0.000197069
0.000193794
0.000182896
0.000211647
0.000211642
0.000204885
0.00020488
0.000193798
0.000182902
0.000211652
0.000211637
0.000204893
0.000204874
0.000211645
0.0002049
0.000204882
0.00019379
0.000182891
0.000211651
0.000204895
0.000204892
0.000182892
0.000179726
0.000170292
0.00020263
0.000202624
0.00019594
0.000195935
0.000179731
0.000170299
0.000202639
0.000202618
0.000195952
0.000195928
0.000202627
0.000195959
0.000195937
0.000179722
0.000170288
0.000202637
0.000195952
0.000195951
0.000170288
0.000167367
0.000159275
0.000193751
0.000193745
0.000187335
0.00018733
0.000167372
0.000159282
0.000193763
0.000193738
0.00018735
0.000187323
0.000193747
0.000187357
0.000187332
0.000167363
0.00015927
0.000193762
0.00018735
0.000187349
0.00015927
0.000156623
0.000149652
0.000185251
0.000185246
0.000179171
0.000179165
0.000156628
0.000149659
0.000185267
0.000185238
0.000179189
0.000179158
0.000185248
0.000179196
0.000179168
0.000156618
0.000149647
0.000185266
0.000179188
0.000179188
0.000149647
0.000147249
0.000141152
0.000177206
0.0001772
0.000171497
0.000171491
0.000147255
0.000141159
0.000177224
0.000177193
0.000171518
0.000171484
0.000177203
0.000171525
0.000171494
0.000147244
0.000141147
0.000177223
0.000171516
0.000171517
0.000141147
0.000139
0.000133598
0.000169656
0.00016965
0.000164304
0.000164298
0.000139005
0.000133605
0.000169677
0.000169642
0.000164327
0.00016429
0.000169653
0.000164334
0.000164301
0.000138994
0.000133592
0.000169676
0.000164325
0.000164326
0.000133592
0.000131671
0.00012674
0.000162573
0.000162568
0.000157538
0.000157533
0.000131676
0.000126747
0.000162597
0.00016256
0.000157564
0.000157525
0.000162571
0.000157571
0.000157537
0.000131664
0.000126734
0.000162597
0.000157563
0.000157564
0.000126733
0.000125014
0.000120418
0.000155909
0.000155903
0.000151144
0.000151139
0.000125019
0.000120425
0.000155934
0.000155895
0.000151171
0.000151131
0.000155907
0.000151179
0.000151143
0.000125007
0.000120412
0.000155934
0.00015117
0.000151171
0.000120411
0.000118873
0.000114513
0.000149599
0.000149593
0.000145087
0.000145081
0.000118878
0.00011452
0.000149626
0.000149585
0.000145115
0.000145073
0.000149598
0.000145124
0.000145087
0.000118866
0.000114506
0.000149626
0.000145115
0.000145115
0.000114505
0.000113208
0.000108929
0.000143617
0.000143611
0.000139306
0.0001393
0.000113213
0.000108936
0.000143645
0.000143603
0.000139335
0.000139292
0.000143616
0.000139344
0.000139306
0.000113202
0.000108923
0.000143645
0.000139335
0.000139336
0.000108921
0.000107972
0.00010381
0.00013791
0.000137903
0.000133793
0.000133787
0.000107977
0.000103817
0.000137938
0.000137895
0.000133822
0.000133779
0.000137909
0.000133833
0.000133794
0.000107965
0.000103804
0.000137938
0.000133824
0.000133823
0.000103803
0.000103167
9.93426e-05
0.000132453
0.000132446
0.000128548
0.00012854
0.000103172
9.93487e-05
0.000132481
0.000132438
0.000128576
0.000128533
0.000132453
0.000128589
0.00012855
0.000103161
9.93365e-05
0.000132483
0.000128579
0.000128579
9.93359e-05
9.87327e-05
9.5757e-05
0.000127313
0.000127305
0.000123979
0.000123971
9.87384e-05
9.57628e-05
0.00012734
0.000127298
0.000124005
0.000123963
0.000127316
0.000124021
0.000123982
9.8727e-05
9.57509e-05
0.000127344
0.00012401
0.00012401
9.57513e-05
9.52877e-05
9.3358e-05
0.000123004
0.000122996
0.000120371
0.000120363
9.52932e-05
9.33634e-05
0.00012303
0.000122988
0.000120396
0.000120354
0.000123008
0.000120412
0.000120375
9.5282e-05
9.33517e-05
0.000123035
0.000120401
0.000120402
9.33544e-05
9.30319e-05
9.161e-05
0.000119581
0.000119574
0.00011768
0.000117674
9.30374e-05
9.16165e-05
0.000119606
0.000119564
0.000117704
0.000117663
0.000119586
0.00011772
0.000117685
9.30263e-05
9.16049e-05
0.000119612
0.000117708
0.00011771
9.16074e-05
9.13802e-05
9.13139e-05
0.000117272
0.000117265
0.000116762
0.000116756
9.13861e-05
9.13183e-05
0.000117295
0.000117255
0.000116785
0.000116746
0.000117277
0.000116802
0.000116767
9.1375e-05
9.13065e-05
0.000117302
0.000116791
0.000116793
9.13081e-05
9.12071e-05
9.16251e-05
0.000116753
0.000116745
0.000116872
0.00011686
9.12119e-05
9.163e-05
0.000116775
0.000116736
0.000116894
0.000116852
0.000116758
0.00011691
0.000116875
9.12004e-05
9.1618e-05
0.000116783
0.000116898
0.000116899
9.16238e-05
9.15454e-05
9.18798e-05
0.000116954
0.00011694
0.000117122
0.000117107
9.15493e-05
9.18829e-05
0.000116975
0.000116932
0.000117143
0.000117099
0.000116955
0.000117157
0.000117123
9.15378e-05
9.18705e-05
0.00011698
0.000117146
0.000117148
9.18772e-05
9.1759e-05
9.1972e-05
0.000117161
0.000117146
0.000117225
0.00011721
9.17619e-05
9.19755e-05
0.000117181
0.000117138
0.000117246
0.000117203
0.000117162
0.00011726
0.000117228
9.17504e-05
9.19634e-05
0.000117188
0.00011725
0.000117253
9.19711e-05
9.18309e-05
9.2015e-05
0.000117241
0.000117225
0.000117264
0.000117247
9.18342e-05
9.20184e-05
0.000117261
0.000117218
0.000117283
0.000117241
0.000117243
0.000117298
0.000117266
9.1823e-05
9.20063e-05
0.000117269
0.000117288
0.000117291
9.20144e-05
9.18695e-05
9.20357e-05
0.000117272
0.000117255
0.000117284
0.000117267
9.18727e-05
9.20396e-05
0.000117292
0.000117249
0.000117303
0.000117261
0.000117274
0.000117317
0.000117286
9.18614e-05
9.20276e-05
0.000117299
0.000117307
0.00011731
9.20358e-05
9.18888e-05
9.20463e-05
0.000117289
0.000117272
0.000117297
0.00011728
9.18925e-05
9.20507e-05
0.000117309
0.000117266
0.000117316
0.000117274
0.000117292
0.00011733
0.000117299
9.18813e-05
9.20388e-05
0.000117315
0.00011732
0.000117322
9.2048e-05
9.18985e-05
9.20539e-05
0.000117301
0.000117285
0.000117307
0.000117291
9.19027e-05
9.2058e-05
0.00011732
0.000117279
0.000117326
0.000117285
0.000117305
0.00011734
0.000117311
9.18916e-05
9.20463e-05
0.000117327
0.00011733
0.000117333
9.20537e-05
9.19049e-05
9.20627e-05
0.000117311
0.000117295
0.000117318
0.000117302
9.19089e-05
9.20656e-05
0.00011733
0.00011729
0.000117337
0.000117297
0.000117315
0.000117348
0.000117322
9.18979e-05
9.20538e-05
0.000117337
0.000117338
0.000117343
9.20626e-05
9.19139e-05
9.20683e-05
0.000117322
0.000117306
0.000117331
0.000117315
9.19168e-05
9.20694e-05
0.000117341
0.0001173
0.000117349
0.000117309
0.000117326
0.000117356
0.000117335
9.19057e-05
9.20576e-05
0.000117347
0.000117347
0.000117356
9.20665e-05
9.19208e-05
9.20694e-05
0.000117336
0.00011732
0.000117342
0.000117325
9.1922e-05
9.20711e-05
0.000117354
0.000117315
0.00011736
0.000117321
0.000117341
0.000117365
0.000117345
9.19111e-05
9.20594e-05
0.000117362
0.000117355
0.000117365
9.20652e-05
9.19233e-05
0.000117347
0.000117331
9.19243e-05
0.000117365
0.000117322
0.000117347
9.19134e-05
0.000117367
0.00023473
0.000234746
0.000234729
0.000234729
0.000235117
0.000234798
0.000234702
0.000234727
0.000235117
0.000234798
0.000234727
0.000234702
0.000234867
0.000233566
0.000233566
0.00010456
3.87376e-05
0.000129255
3.98214e-05
2.16819e-05
2.28318e-05
0.000104551
3.87337e-05
0.000129251
3.9818e-05
0.000233973
0.000233973
0.000233973
0.000232934
0.000232934
0.000232934
0.000232934
0.000206171
9.34602e-05
0.000233969
0.000231987
0.000222635
8.70998e-05
0.000233611
2.16809e-05
2.28311e-05
0.000206164
0.000233969
9.34606e-05
0.000231986
0.000222643
0.000233611
8.71043e-05
4.78095e-05
4.77979e-05
0.000231345
4.38966e-05
4.38872e-05
7.2521e-05
4.24316e-05
8.13675e-05
4.37591e-05
2.4776e-05
2.54632e-05
7.25111e-05
4.24281e-05
8.13632e-05
4.37553e-05
0.000232531
0.00023253
0.00023253
0.000231082
0.000231082
0.000231081
0.000231081
0.000167424
7.94612e-05
0.00023208
0.00022609
0.000180147
7.45479e-05
0.000231374
2.47742e-05
2.54617e-05
0.000167419
0.00023208
7.94555e-05
0.000226088
0.00018014
0.000231373
7.45508e-05
3.90998e-05
3.90897e-05
0.000219597
3.65094e-05
3.64986e-05
5.62234e-05
4.55449e-05
6.10714e-05
4.64092e-05
2.60141e-05
2.61174e-05
5.62286e-05
4.55421e-05
6.10675e-05
4.64063e-05
0.000230513
0.000230512
0.000230512
0.000228539
0.00022854
0.000228538
0.000228539
0.000138507
6.74906e-05
0.000228637
0.000218223
0.000147968
6.35838e-05
0.00022753
2.60119e-05
2.61152e-05
0.000138503
0.000228637
6.74852e-05
0.000218219
0.00014796
0.000227527
6.35801e-05
3.31457e-05
3.31371e-05
0.000204622
3.19251e-05
3.1916e-05
4.69124e-05
4.74987e-05
4.98537e-05
4.80024e-05
2.6048e-05
2.5938e-05
4.69116e-05
4.74953e-05
4.98532e-05
4.79995e-05
0.000227795
0.000227794
0.000227794
0.000225324
0.000225325
0.000225323
0.000225323
0.000117445
5.82666e-05
0.000223709
0.000209414
0.000124491
5.55437e-05
0.000222296
2.60456e-05
2.59357e-05
0.000117442
0.000223708
5.82649e-05
0.000209409
0.000124484
0.000222293
5.55404e-05
3.05534e-05
3.05455e-05
0.000189794
3.0243e-05
3.02352e-05
4.13815e-05
4.85836e-05
4.31941e-05
4.88395e-05
2.56759e-05
2.55183e-05
4.13805e-05
4.85801e-05
4.31946e-05
4.88365e-05
0.000224429
0.000224427
0.000224428
0.000221558
0.000221558
0.000221555
0.000221556
0.00010201
5.1926e-05
0.000217753
0.000200401
0.000107263
5.01216e-05
0.000216161
2.56735e-05
2.55161e-05
0.000102008
0.000217751
5.19245e-05
0.000200395
0.000107257
0.000216157
5.01191e-05
3.01388e-05
3.01318e-05
0.00017639
3.03353e-05
3.03284e-05
3.81154e-05
4.90954e-05
3.91992e-05
4.92002e-05
2.52379e-05
2.5092e-05
3.81144e-05
4.90922e-05
3.91994e-05
4.91971e-05
0.000220548
0.000220545
0.000220546
0.000217388
0.000217389
0.000217385
0.000217387
9.0398e-05
4.77748e-05
0.000211245
0.000191606
9.43448e-05
4.66474e-05
0.000209578
2.52354e-05
2.50902e-05
9.03969e-05
0.000211243
4.77736e-05
0.000191598
9.4339e-05
0.000209573
4.66453e-05
3.09288e-05
3.09226e-05
0.00016459
3.1511e-05
3.1505e-05
3.63396e-05
4.92778e-05
3.69029e-05
4.92997e-05
2.48485e-05
2.47305e-05
3.63383e-05
4.92747e-05
3.69026e-05
4.92966e-05
0.0002163
0.000216296
0.000216298
0.000212953
0.000212954
0.000212948
0.000212951
8.14983e-05
4.51956e-05
0.00020455
0.000183218
8.45625e-05
4.458e-05
0.000202877
2.48461e-05
2.47287e-05
8.14978e-05
0.000204547
4.51946e-05
0.00018321
8.45568e-05
0.000202872
4.45773e-05
3.24832e-05
3.24778e-05
0.000154303
3.33009e-05
3.32952e-05
3.56467e-05
4.92968e-05
3.57899e-05
4.92874e-05
2.45346e-05
2.4445e-05
3.56444e-05
4.92937e-05
3.57895e-05
4.92842e-05
0.000211817
0.000211812
0.000211814
0.000208363
0.000208364
0.000208358
0.00020836
7.45607e-05
4.37933e-05
0.000197905
0.000175298
7.70183e-05
4.35434e-05
0.00019627
2.45322e-05
2.44432e-05
7.45604e-05
0.000197902
4.37915e-05
0.00017529
7.70128e-05
0.000196264
4.35409e-05
3.45219e-05
3.45176e-05
0.000145263
3.54658e-05
3.54616e-05
3.57362e-05
4.92617e-05
3.56137e-05
4.92503e-05
2.42934e-05
2.42278e-05
3.57341e-05
4.92587e-05
3.56122e-05
4.92473e-05
0.000207203
0.000207197
0.0002072
0.000203707
0.000203707
0.000203701
0.000203704
6.9099e-05
4.32607e-05
0.000191445
0.000167873
7.11131e-05
4.32513e-05
0.000189863
2.42912e-05
2.42257e-05
6.90981e-05
0.000191442
4.32595e-05
0.000167864
7.11082e-05
0.000189857
4.32495e-05
3.685e-05
3.68465e-05
0.000137266
3.78646e-05
3.78618e-05
3.65371e-05
4.92331e-05
3.61881e-05
4.9229e-05
2.41145e-05
2.40669e-05
3.65352e-05
4.92301e-05
3.61868e-05
4.92261e-05
0.000202541
0.000202534
0.000202537
0.000199044
0.000199046
0.000199038
0.000199042
6.47979e-05
4.33976e-05
0.000185199
0.000160901
6.64332e-05
4.358e-05
0.000183675
2.41125e-05
2.40649e-05
6.47958e-05
0.000185196
4.33969e-05
0.000160893
6.64301e-05
0.000183668
4.35786e-05
3.93339e-05
3.93312e-05
0.000130087
4.03764e-05
4.0375e-05
3.79692e-05
4.92287e-05
3.74168e-05
4.92337e-05
2.39851e-05
2.39514e-05
3.79675e-05
4.92256e-05
3.74157e-05
4.92307e-05
0.000197886
0.000197879
0.000197882
0.000194412
0.000194413
0.000194405
0.000194409
6.1448e-05
4.40772e-05
0.000179211
0.000154334
6.26904e-05
4.44181e-05
0.00017776
2.39831e-05
2.39494e-05
6.14461e-05
0.000179208
4.40768e-05
0.000154325
6.26882e-05
0.000177753
4.44172e-05
4.18701e-05
4.18684e-05
0.000123513
4.29054e-05
4.29052e-05
3.9972e-05
4.92462e-05
3.92359e-05
4.92591e-05
2.38934e-05
2.387e-05
3.99704e-05
4.92434e-05
3.92349e-05
4.92563e-05
0.000193268
0.00019326
0.000193264
0.000189826
0.000189827
0.000189819
0.000189823
5.89555e-05
4.52059e-05
0.000173501
0.000148112
5.97987e-05
4.56783e-05
0.000172118
2.38915e-05
2.3868e-05
5.89538e-05
0.000173498
4.52059e-05
0.000148103
5.97965e-05
0.000172112
4.56777e-05
4.4374e-05
4.43733e-05
0.000117422
4.53714e-05
4.53721e-05
4.25038e-05
4.92795e-05
4.15765e-05
4.92958e-05
2.38294e-05
2.38131e-05
4.25236e-05
4.92768e-05
4.15549e-05
4.92931e-05
0.000188675
0.000188667
0.000188671
0.000185264
0.000185265
0.000185256
0.000185261
5.71698e-05
4.67071e-05
0.000168049
0.000142199
5.76842e-05
4.72869e-05
0.000166718
2.38274e-05
2.38112e-05
5.71678e-05
0.000168046
4.67072e-05
0.00014219
5.76815e-05
0.000166712
4.72864e-05
4.67777e-05
4.67777e-05
0.000111663
4.77155e-05
4.77171e-05
4.54829e-05
4.93181e-05
4.43364e-05
4.93335e-05
2.3784e-05
2.37724e-05
4.54971e-05
4.93155e-05
4.43187e-05
4.93308e-05
0.000184147
0.000184139
0.000184143
0.000180818
0.00018082
0.000180811
0.000180816
5.60157e-05
4.85057e-05
0.000162819
0.000136563
5.63047e-05
4.91668e-05
0.00016155
2.37821e-05
2.37705e-05
5.60141e-05
0.000162816
4.85059e-05
0.000136553
5.63025e-05
0.000161544
4.91665e-05
4.903e-05
4.90303e-05
0.000106296
4.98902e-05
4.98922e-05
4.87489e-05
4.9353e-05
4.74693e-05
4.93645e-05
2.37528e-05
2.37455e-05
4.8758e-05
4.93504e-05
4.74582e-05
4.93619e-05
0.000179715
0.000179706
0.000179712
0.000176457
0.000176457
0.000176448
0.000176453
5.55471e-05
5.05282e-05
0.000157791
0.000131168
5.56066e-05
5.12399e-05
0.000156564
2.37508e-05
2.37436e-05
5.55458e-05
0.000157789
5.05284e-05
0.000131158
5.56049e-05
0.000156558
5.12396e-05
5.11036e-05
5.11042e-05
0.000101488
5.18455e-05
5.18489e-05
5.21297e-05
4.93686e-05
5.08272e-05
4.93735e-05
2.37302e-05
2.37249e-05
5.21313e-05
4.93661e-05
5.08236e-05
4.9371e-05
0.000175411
0.000175402
0.000175407
0.000172462
0.000172464
0.000172454
0.00017246
5.5771e-05
5.2638e-05
0.000152991
0.000126176
5.55974e-05
5.33535e-05
0.000151875
2.37284e-05
2.3723e-05
5.57696e-05
0.000152989
5.26385e-05
0.000126165
5.55959e-05
0.00015187
5.33538e-05
5.28633e-05
5.28651e-05
9.73914e-05
5.35281e-05
5.35328e-05
5.49619e-05
4.93767e-05
5.40639e-05
4.93731e-05
2.37147e-05
2.37106e-05
5.49639e-05
4.93744e-05
5.40618e-05
4.93707e-05
0.000171535
0.000171525
0.000171532
0.00016885
0.00016885
0.000168839
0.000168846
5.67401e-05
5.47177e-05
0.000148797
0.000122126
5.63459e-05
5.52972e-05
0.000147856
2.37128e-05
2.37088e-05
5.67387e-05
0.000148795
5.47198e-05
0.000122115
5.63449e-05
0.000147851
5.52986e-05
5.43776e-05
5.43789e-05
9.44245e-05
5.47173e-05
5.4722e-05
5.6154e-05
4.93464e-05
5.58979e-05
4.93317e-05
2.37023e-05
2.37005e-05
5.61614e-05
4.93435e-05
5.59011e-05
4.93287e-05
0.000168014
0.000168003
0.000168011
0.000166003
0.000166007
0.000165996
0.000166003
5.75499e-05
5.60797e-05
0.00014523
0.000118896
5.73656e-05
5.63175e-05
0.000144476
2.37005e-05
2.36983e-05
5.75501e-05
0.000145228
5.60798e-05
0.000118885
5.7365e-05
0.000144471
5.63154e-05
5.5055e-05
5.50546e-05
9.23834e-05
5.51668e-05
5.51671e-05
5.65261e-05
4.93094e-05
5.64288e-05
4.93035e-05
2.36962e-05
2.36957e-05
5.65333e-05
4.93065e-05
5.64342e-05
4.93005e-05
0.000165573
0.000165562
0.00016557
0.000164957
0.000164961
0.00016495
0.000164957
5.78282e-05
5.65719e-05
0.000142831
0.000117034
5.77191e-05
5.66676e-05
0.00014253
2.36938e-05
2.36935e-05
5.78316e-05
0.000142829
5.65784e-05
0.000117022
5.77222e-05
0.000142526
5.66754e-05
5.52469e-05
5.52472e-05
9.12915e-05
5.52783e-05
5.52786e-05
5.65987e-05
4.92965e-05
5.6597e-05
4.92941e-05
2.36937e-05
2.36941e-05
5.66142e-05
4.92938e-05
5.66131e-05
4.92915e-05
0.000164926
0.000164915
0.000164921
0.000165101
0.000165098
0.000165087
0.000165095
5.82843e-05
5.6795e-05
0.000142236
0.000116799
5.8128e-05
5.68279e-05
0.000142296
2.36913e-05
2.36916e-05
5.82893e-05
0.000142234
5.68078e-05
0.000116787
5.81319e-05
0.000142292
5.68393e-05
5.5301e-05
5.5302e-05
9.14367e-05
5.53114e-05
5.53145e-05
5.65927e-05
4.92912e-05
5.65983e-05
4.92903e-05
2.36929e-05
2.36938e-05
5.66087e-05
4.92889e-05
5.66148e-05
4.92884e-05
0.000165196
0.000165185
0.000165193
0.000165331
0.000165329
0.000165319
0.000165326
5.84703e-05
5.68539e-05
0.000142458
0.000117057
5.84338e-05
5.68664e-05
0.000142516
2.36902e-05
2.36909e-05
5.84766e-05
0.000142456
5.68647e-05
0.000117046
5.84399e-05
0.000142513
5.68772e-05
5.53085e-05
5.53114e-05
9.17796e-05
5.53074e-05
5.53108e-05
5.65928e-05
4.92894e-05
5.65922e-05
4.92894e-05
2.36929e-05
2.36937e-05
5.66076e-05
4.92877e-05
5.6608e-05
4.92879e-05
0.000165361
0.00016535
0.000165358
0.000165426
0.000165426
0.000165416
0.000165423
5.85256e-05
5.68746e-05
0.000142665
0.000117225
5.8506e-05
5.68819e-05
0.000142704
2.369e-05
2.36909e-05
5.85316e-05
0.000142663
5.68853e-05
0.000117214
5.8512e-05
0.000142702
5.68923e-05
5.52991e-05
5.53025e-05
9.19361e-05
5.53006e-05
5.53025e-05
5.65997e-05
4.92893e-05
5.65995e-05
4.92895e-05
2.3693e-05
2.36938e-05
5.66155e-05
4.9288e-05
5.66123e-05
4.92883e-05
0.00016544
0.00016543
0.000165438
0.000165463
0.000165463
0.000165452
0.000165461
5.85551e-05
5.68852e-05
0.00014275
0.000117287
5.85409e-05
5.68909e-05
0.000142767
2.36901e-05
2.3691e-05
5.85606e-05
0.000142749
5.68952e-05
0.000117277
5.85465e-05
0.000142764
5.69007e-05
5.53012e-05
5.53021e-05
9.19949e-05
5.53038e-05
5.53057e-05
5.66044e-05
4.92895e-05
5.66041e-05
4.92897e-05
2.36931e-05
2.3694e-05
5.6619e-05
4.92883e-05
5.66204e-05
4.92885e-05
0.000165469
0.000165459
0.000165467
0.000165483
0.000165481
0.000165471
0.000165479
5.85725e-05
5.68916e-05
0.000142783
0.000117312
5.85624e-05
5.6896e-05
0.000142793
2.36902e-05
2.36911e-05
5.85781e-05
0.000142781
5.69016e-05
0.000117302
5.85679e-05
0.00014279
5.69059e-05
5.53016e-05
5.53064e-05
9.20264e-05
5.53043e-05
5.53084e-05
5.66058e-05
4.92895e-05
5.66065e-05
4.92897e-05
2.36932e-05
2.36941e-05
5.6621e-05
4.92884e-05
5.66228e-05
4.92886e-05
0.000165487
0.000165477
0.000165485
0.000165498
0.000165496
0.000165486
0.000165494
5.8582e-05
5.68953e-05
0.000142802
0.000117327
5.85745e-05
5.68988e-05
0.00014281
2.36903e-05
2.36912e-05
5.85876e-05
0.0001428
5.69052e-05
0.000117317
5.858e-05
0.000142807
5.69087e-05
5.53028e-05
5.53049e-05
9.20432e-05
5.53056e-05
5.5308e-05
5.66065e-05
4.92895e-05
5.66076e-05
4.92897e-05
2.36933e-05
2.36941e-05
5.6622e-05
4.92885e-05
5.66235e-05
4.92887e-05
0.000165502
0.000165492
0.000165501
0.000165511
0.000165511
0.000165501
0.000165509
5.85862e-05
5.68969e-05
0.000142816
0.000117338
5.85804e-05
5.69e-05
0.000142823
2.36903e-05
2.36912e-05
5.85917e-05
0.000142814
5.69068e-05
0.000117328
5.85858e-05
0.00014282
5.69098e-05
5.53033e-05
5.53054e-05
9.20515e-05
5.5306e-05
5.53084e-05
5.66069e-05
4.92895e-05
5.6608e-05
4.92896e-05
2.36933e-05
2.36941e-05
5.66225e-05
4.92886e-05
5.66241e-05
4.92888e-05
0.000165514
0.000165504
0.000165512
0.000165524
0.000165524
0.000165514
0.000165523
5.85877e-05
5.68975e-05
0.000142827
0.000117347
5.85826e-05
5.69005e-05
0.000142832
2.36903e-05
2.36912e-05
5.85932e-05
0.000142825
5.69075e-05
0.000117337
5.85879e-05
0.00014283
5.69104e-05
5.53034e-05
5.53056e-05
9.20573e-05
5.53061e-05
5.53082e-05
5.6607e-05
4.92895e-05
5.66082e-05
4.92896e-05
2.36933e-05
2.36941e-05
5.66226e-05
4.92886e-05
5.66243e-05
4.92888e-05
0.000165528
0.000165519
0.000165528
0.000165535
0.000165541
0.000165531
0.000165541
5.85884e-05
5.68979e-05
0.000142834
0.000117354
5.85835e-05
5.69009e-05
0.000142838
2.36903e-05
2.36912e-05
5.85939e-05
0.000142833
5.69078e-05
0.000117345
5.85888e-05
0.000142837
5.69106e-05
5.53035e-05
5.53056e-05
9.20621e-05
5.53062e-05
5.53084e-05
5.6607e-05
4.92894e-05
5.66083e-05
4.92896e-05
2.36933e-05
2.36941e-05
5.66226e-05
4.92887e-05
5.66245e-05
4.92889e-05
0.000165551
0.000165542
0.000165552
0.000165549
0.000165556
0.000165546
0.000165555
5.8589e-05
5.68982e-05
0.000142843
0.000117363
5.85842e-05
5.6901e-05
0.000142848
2.36903e-05
2.36912e-05
5.85944e-05
0.000142843
5.6908e-05
0.000117354
5.85894e-05
0.000142849
5.69107e-05
5.53034e-05
5.53056e-05
9.20695e-05
5.5306e-05
5.53086e-05
5.66035e-05
4.92894e-05
5.66082e-05
4.92896e-05
2.36933e-05
2.36941e-05
5.66167e-05
4.92888e-05
5.66246e-05
4.9289e-05
0.000165559
0.000165549
0.000165557
5.85531e-05
5.68982e-05
0.000142856
0.000117368
5.85844e-05
5.68944e-05
0.000142858
2.36903e-05
0.000142852
5.6908e-05
5.85894e-05
5.53033e-05
5.53058e-05
0.000234867
0.000233564
0.000233565
2.32581e-05
0.000214158
2.3257e-05
0.000214161
0.000234435
5.13473e-05
5.13308e-05
0.000229989
0.00022999
0.000235117
0.000234798
0.000234702
0.000234727
0.000235117
0.000234798
0.000234702
0.000234727
0.000234476
4.02623e-05
0.000218811
0.000147939
0.000234476
4.02618e-05
0.000218811
0.000147947
0.000233889
0.000234475
9.9767e-05
0.000234271
0.000233358
0.000234597
0.000228487
0.000233889
0.000234474
9.97579e-05
0.000234271
0.000233358
0.000234597
0.000228487
0.000234868
0.000233565
0.000233565
2.32578e-05
0.000214166
0.000234435
5.13414e-05
5.13326e-05
0.000229988
0.00022999
2.32577e-05
0.000214169
0.000235117
0.000234798
0.000234702
0.000234727
0.000235117
0.000234798
0.000234727
0.000234702
0.000234476
4.02591e-05
0.000218812
0.000147915
0.000233889
0.000234474
9.97457e-05
0.00023427
0.000233358
0.000234597
0.000228485
0.000234476
4.02586e-05
0.000218812
0.000147931
0.000233889
0.000234474
0.000234271
9.97531e-05
0.000234597
0.000233358
0.000228487
0.00023473
0.000234746
0.000234729
0.000234729
0.00023473
0.000234746
0.000234729
0.000234729
0.00023473
0.000234746
0.000234729
0.000234729
0.000234591
0.000234574
0.000234252
0.000234252
0.000234592
0.000234592
0.000234252
0.000234591
0.000234574
0.000234252
0.000234252
0.000234592
0.000234592
0.000234252
0.000234591
0.000234574
0.000234252
0.000234252
0.000234592
0.000234592
0.000234252
0.000234591
0.000234574
0.000234252
0.000234252
0.000234592
0.000234592
0.000234252
0.000235117
0.000234798
0.000234727
0.000234702
0.000233889
0.000234474
9.97483e-05
0.00023427
0.000233358
0.000234597
0.000228486
0.000234476
4.02598e-05
0.000218814
0.000147932
0.000233889
0.000234475
0.000234271
9.97633e-05
0.000234597
0.000233358
0.000228487
0.000234476
4.02594e-05
0.000218813
0.00014794
0.000234867
0.000233566
0.000233566
2.3257e-05
0.000214162
0.000234435
5.1332e-05
5.13381e-05
0.00022999
0.000229992
2.32574e-05
0.00021417
0.000235117
0.000234798
0.000234727
0.000234702
0.000233889
0.000234474
0.00023427
9.97578e-05
0.000234596
0.000233359
0.000228486
0.000233889
0.000234474
0.00023427
9.97473e-05
0.000234597
0.000233358
0.000228485
0.000234476
4.02589e-05
0.000218815
0.000147918
0.000234476
4.02587e-05
0.00021881
0.000147904
0.000234435
5.13421e-05
5.13299e-05
0.000229991
0.000229991
2.32575e-05
0.000214169
2.3257e-05
0.000214163
2.16823e-05
2.28329e-05
2.1681e-05
2.28313e-05
4.78134e-05
4.77996e-05
0.000231346
4.38991e-05
4.38859e-05
2.44813e-05
2.33074e-05
2.44797e-05
2.33061e-05
0.000229665
4.00149e-05
4.00035e-05
4.30207e-05
4.30045e-05
0.000104573
3.87368e-05
0.000129241
3.98195e-05
0.000206174
9.34707e-05
0.000233969
0.000231986
0.00022263
8.71062e-05
0.000233611
0.000206177
9.34543e-05
0.000233969
0.000231982
0.000222626
8.70946e-05
0.000233611
9.83232e-05
4.19578e-05
4.0375e-05
8.55347e-05
9.83156e-05
4.19563e-05
4.0374e-05
8.55363e-05
0.000200027
0.000230748
8.08113e-05
0.000232682
8.55597e-05
0.000233189
0.000185573
0.000200026
0.000230744
8.08034e-05
0.000232682
8.55415e-05
0.000233189
0.000185576
4.78021e-05
4.78126e-05
0.000231347
4.38915e-05
4.38911e-05
2.1682e-05
2.2833e-05
2.44803e-05
2.33067e-05
0.000229665
4.00089e-05
4.00049e-05
4.30067e-05
4.30188e-05
2.44816e-05
2.33074e-05
0.000206165
9.34491e-05
0.000233969
0.000231983
0.000222629
8.70886e-05
0.000233611
0.000104553
3.87332e-05
0.00012927
3.98173e-05
0.000206165
0.000233969
9.34531e-05
0.000231982
0.000222634
0.000233611
8.7087e-05
9.83197e-05
4.19541e-05
4.03715e-05
8.55297e-05
0.000200024
0.000230745
8.07976e-05
0.000232682
8.55408e-05
0.000233189
0.000185571
9.83208e-05
4.19533e-05
4.03707e-05
8.55276e-05
0.000200024
0.000230743
0.000232682
8.07929e-05
0.000233188
8.55408e-05
0.000185567
0.000104559
3.87341e-05
0.00012926
3.98203e-05
0.000206171
0.000233969
9.34618e-05
0.000231985
0.000222639
0.000233611
8.71032e-05
0.000104558
3.87349e-05
0.00012928
3.98184e-05
0.000200028
0.00023075
8.08067e-05
0.000232683
8.55557e-05
0.000233189
0.000185574
9.83207e-05
4.19565e-05
4.03726e-05
8.55307e-05
0.000200028
0.000230748
0.000232682
8.08114e-05
0.000233189
8.55528e-05
0.000185573
9.83263e-05
4.19552e-05
4.0373e-05
8.55318e-05
4.7802e-05
4.78079e-05
0.000231345
4.38828e-05
4.39012e-05
2.16814e-05
2.28318e-05
2.44792e-05
2.33052e-05
0.000229665
3.99987e-05
4.00163e-05
4.30086e-05
4.30134e-05
2.44803e-05
2.33067e-05
0.000206162
0.000233969
9.34478e-05
0.000231983
0.000222638
0.000233611
8.70917e-05
0.000104538
3.87339e-05
0.000129287
3.98186e-05
0.000104534
3.87333e-05
0.000129273
3.98175e-05
0.000200026
0.00023075
0.000232682
8.08114e-05
0.000233189
8.55509e-05
0.00018557
0.000200026
0.000230746
0.000232682
8.08024e-05
0.000233189
8.55396e-05
0.000185569
9.83353e-05
4.19548e-05
4.03726e-05
8.55272e-05
9.83343e-05
4.19541e-05
4.03712e-05
8.55269e-05
2.16818e-05
2.28319e-05
2.16809e-05
2.28313e-05
0.000229664
4.00168e-05
4.00049e-05
4.30171e-05
4.30033e-05
2.44805e-05
2.3307e-05
2.44796e-05
2.33063e-05
2.47767e-05
2.54643e-05
2.47749e-05
2.54625e-05
3.91075e-05
3.90903e-05
0.000219599
3.65074e-05
3.64986e-05
2.59543e-05
2.56202e-05
2.59529e-05
2.56185e-05
0.000216772
3.37796e-05
3.3772e-05
3.56634e-05
3.56464e-05
7.25234e-05
4.24306e-05
8.13693e-05
4.37579e-05
0.000167421
7.94625e-05
0.000232079
0.000226085
0.000180146
7.45501e-05
0.000231374
0.000167425
7.94466e-05
0.000232079
0.00022608
0.000180148
7.45444e-05
0.000231373
6.95748e-05
4.52337e-05
4.41489e-05
6.3181e-05
6.9577e-05
4.52333e-05
4.41476e-05
6.31838e-05
0.000162802
0.000224256
6.87259e-05
0.00022965
7.32135e-05
0.000230563
0.000151813
0.000162806
0.000224251
6.87219e-05
0.000229649
7.31969e-05
0.000230563
0.000151816
3.90933e-05
3.91069e-05
0.000219601
3.65038e-05
3.64979e-05
2.47767e-05
2.54645e-05
2.59538e-05
2.56194e-05
0.000216773
3.3776e-05
3.37748e-05
3.56497e-05
3.56599e-05
2.59548e-05
2.56201e-05
0.000167421
7.94445e-05
0.000232079
0.000226084
0.00018014
7.45409e-05
0.000231373
7.25087e-05
4.2427e-05
8.13621e-05
4.37544e-05
0.000167418
0.000232078
7.94467e-05
0.000226078
0.000180138
0.000231373
7.45322e-05
6.95789e-05
4.52307e-05
4.41455e-05
6.31804e-05
0.000162797
0.000224255
6.87181e-05
0.000229649
7.31966e-05
0.000230564
0.000151813
6.9578e-05
4.52295e-05
4.41435e-05
6.31776e-05
0.000162794
0.000224248
0.000229648
6.87125e-05
0.000230562
7.31951e-05
0.000151809
7.25163e-05
4.24298e-05
8.13701e-05
4.37578e-05
0.000167421
0.000232079
7.94552e-05
0.000226084
0.000180145
0.000231373
7.45505e-05
7.25192e-05
4.24295e-05
8.13641e-05
4.37561e-05
0.000162805
0.000224261
6.87269e-05
0.000229651
7.32109e-05
0.000230564
0.000151814
6.95792e-05
4.52331e-05