/*--------------------------------*- C++ -*----------------------------------*\
| =========                 |                                                 |
| \\      /  F ield         | OpenFOAM: The Open Source CFD Toolbox           |
|  \\    /   O peration     | Version:  v1912                                 |
|   \\  /    A nd           | Website:  www.openfoam.com                      |
|    \\/     M anipulation  |                                                 |
\*---------------------------------------------------------------------------*/
FoamFile
{
    version     2.0;
    format      ascii;
    class       surfaceScalarField;
    location    "80";
    object      phi;
}
// * * * * * * * * * * * * * * * * * * * * * * * * * * * * * * * * * * * * * //

dimensions      [0 3 -1 0 0 0 0];
oriented        oriented;


internalField   nonuniform List<scalar> 
165607
(
-0.00104215
-1.46069e-05
-1.45031e-05
9.36394e-06
9.19403e-06
0.0010527
-0.000261455
-5.65765e-06
1.44838e-05
6.88154e-06
0.00105938
-4.5695e-06
-1.60013e-06
-2.19713e-06
-2.55184e-06
-6.65029e-06
-7.05751e-06
-3.16979e-06
-0.000263289
-0.000259726
-0.000262822
-0.000261432
-5.66267e-06
1.45128e-05
6.97121e-06
0.00105917
-4.57468e-06
-1.61026e-06
-2.20475e-06
-2.55623e-06
-6.64436e-06
-7.0537e-06
-3.17189e-06
-0.000259698
-0.000263261
-0.000262786
-0.000260567
5.63326e-06
5.67325e-06
-4.87207e-06
-4.86615e-06
0.000258998
-1.62184e-06
-1.62355e-06
-0.00106075
8.95285e-07
8.95907e-07
0.0010622
-0.00106267
-1.60943e-06
1.6174e-06
7.68083e-07
0.00106396
-6.67817e-07
8.21352e-07
-1.33663e-07
3.94662e-07
-8.00086e-07
-1.41826e-06
-2.59072e-07
-0.00106235
-1.60433e-06
1.62807e-06
7.63383e-07
0.00106363
-6.67788e-07
8.15833e-07
-1.33706e-07
3.92036e-07
-8.02634e-07
-1.41791e-06
-2.56579e-07
-0.000261557
1.64219e-06
1.60448e-06
-6.90591e-07
-6.93756e-07
0.000259695
-1.36561e-06
-1.36724e-06
-0.00106641
6.89646e-07
6.90347e-07
0.00106777
-0.00106791
-1.56887e-06
1.37186e-06
6.62299e-07
0.00106926
-6.38718e-07
8.72993e-07
-9.20509e-08
4.43881e-07
-7.92222e-07
-1.38976e-06
-2.19804e-07
-0.00106758
-1.56358e-06
1.36668e-06
6.67635e-07
0.00106893
-6.38713e-07
8.6755e-07
-9.20212e-08
4.43826e-07
-7.92147e-07
-1.38416e-06
-2.17322e-07
-0.000262793
1.59915e-06
1.56373e-06
-6.60314e-07
-6.68501e-07
0.000260959
-1.34745e-06
-1.34891e-06
-0.00107187
6.71326e-07
6.72097e-07
0.00107322
-0.00107327
-1.56967e-06
1.3485e-06
6.44488e-07
0.00107458
-6.36922e-07
8.97025e-07
-6.82276e-08
4.60524e-07
-7.94731e-07
-1.39634e-06
-1.98733e-07
-0.00107293
-1.56432e-06
1.34834e-06
6.44561e-07
0.00107424
-6.34189e-07
8.91552e-07
-7.05463e-08
4.60475e-07
-7.97221e-07
-1.39611e-06
-1.96242e-07
-0.000264072
1.59751e-06
1.56456e-06
-6.51834e-07
-6.57474e-07
0.00026222
-1.29977e-06
-1.30105e-06
-0.00107722
6.46124e-07
6.4695e-07
0.00107853
-0.00107844
-1.56258e-06
1.3007e-06
6.15195e-07
0.0010797
-6.2422e-07
9.24726e-07
-4.44141e-08
4.84825e-07
-7.84847e-07
-1.3966e-06
-1.69813e-07
-0.0010781
-1.55718e-06
1.30047e-06
6.15194e-07
0.00107936
-6.21452e-07
9.19267e-07
-4.66561e-08
4.84761e-07
-7.87339e-07
-1.39637e-06
-1.67332e-07
-0.000265291
1.59057e-06
1.55742e-06
-6.35711e-07
-6.41362e-07
0.00026342
-1.25013e-06
-1.25124e-06
-0.00108237
6.22086e-07
6.22956e-07
0.00108363
-0.00108338
-1.55457e-06
1.25092e-06
5.89014e-07
0.00108457
-6.11762e-07
9.50502e-07
-2.39046e-08
5.10432e-07
-7.71037e-07
-1.39262e-06
-1.41195e-07
-0.00108304
-1.54913e-06
1.25064e-06
5.88965e-07
0.00108423
-6.08965e-07
9.45029e-07
-2.60462e-08
5.10354e-07
-7.73544e-07
-1.39241e-06
-1.38729e-07
-0.000266436
1.58271e-06
1.54939e-06
-6.19182e-07
-6.24848e-07
0.000264548
-1.20483e-06
-1.20584e-06
-0.00108732
6.01346e-07
6.02176e-07
0.00108853
-0.00108806
-1.54795e-06
1.20552e-06
5.67579e-07
0.0010892
-6.018e-07
9.7363e-07
-7.60447e-09
5.35815e-07
-7.57008e-07
-1.38753e-06
-1.14807e-07
-0.00108772
-1.54252e-06
1.20524e-06
5.67576e-07
0.00108885
-5.99035e-07
9.68087e-07
-9.52101e-09
5.35722e-07
-7.59543e-07
-1.38733e-06
-1.12364e-07
-0.000267508
1.57635e-06
1.54284e-06
-6.04716e-07
-6.10429e-07
0.000265604
-1.16501e-06
-1.16677e-06
-0.00109208
5.84263e-07
5.85008e-07
0.00109325
-0.00109252
-1.54415e-06
1.1665e-06
5.50474e-07
0.00109359
-5.95639e-07
9.92944e-07
1.02676e-08
5.59632e-07
-7.44678e-07
-1.38309e-06
-9.18717e-08
-0.00109217
-1.53858e-06
1.16661e-06
5.50782e-07
0.00109325
-5.92681e-07
9.8752e-07
6.19924e-09
5.59648e-07
-7.47127e-07
-1.3828e-06
-8.93609e-08
-0.00026851
1.57247e-06
1.53869e-06
-5.9326e-07
-5.98832e-07
0.000266591
-1.13175e-06
-1.13314e-06
-0.00109668
5.70256e-07
5.70836e-07
0.0010978
-0.00109676
-1.54339e-06
1.1329e-06
5.37922e-07
0.00109779
-5.92274e-07
1.00923e-06
2.87626e-08
5.81642e-07
-7.33874e-07
-1.37965e-06
-7.21395e-08
-0.00109641
-1.53779e-06
1.1329e-06
5.37972e-07
0.00109744
-5.89371e-07
1.0038e-06
2.55531e-08
5.81673e-07
-7.36312e-07
-1.37932e-06
-6.96399e-08
-0.00026945
1.57171e-06
1.53787e-06
-5.85292e-07
-5.90943e-07
0.000267517
-1.10348e-06
-1.10473e-06
-0.00110112
5.58848e-07
5.59415e-07
0.00110221
-0.00110082
-1.54384e-06
1.1045e-06
5.27889e-07
0.0011018
-5.90279e-07
1.02413e-06
4.34539e-08
6.02254e-07
-7.23564e-07
-1.37639e-06
-5.50661e-08
-0.00110047
-1.53823e-06
1.10446e-06
5.279e-07
0.00110146
-5.87389e-07
1.01867e-06
4.03841e-08
6.02278e-07
-7.26015e-07
-1.37607e-06
-5.26031e-08
-0.000270332
1.57232e-06
1.53834e-06
-5.78919e-07
-5.84617e-07
0.000268385
-1.07842e-06
-1.07951e-06
-0.00110543
5.48754e-07
5.49352e-07
0.00110649
-0.0011047
-1.54494e-06
1.07933e-06
5.19057e-07
0.00110565
-5.86198e-07
1.03796e-06
5.28151e-08
6.21279e-07
-7.13039e-07
-1.37267e-06
-4.06324e-08
-0.00110435
-1.53934e-06
1.07921e-06
5.19028e-07
0.0011053
-5.86115e-07
1.03246e-06
5.2901e-08
6.2128e-07
-7.15548e-07
-1.37237e-06
-3.82174e-08
-0.00027116
1.57358e-06
1.53947e-06
-5.73467e-07
-5.79207e-07
0.000269199
-1.05603e-06
-1.05713e-06
-0.00110963
5.39901e-07
5.40461e-07
0.00111066
-0.00110843
-1.54617e-06
1.05701e-06
5.10735e-07
0.00110934
-5.84605e-07
1.05069e-06
6.34487e-08
6.38226e-07
-7.01752e-07
-1.3679e-06
-2.86738e-08
-0.00110808
-1.54055e-06
1.05688e-06
5.10701e-07
0.00110899
-5.84497e-07
1.04519e-06
6.35647e-08
6.38233e-07
-7.04282e-07
-1.3676e-06
-2.63274e-08
-0.000271935
1.57495e-06
1.5407e-06
-5.68312e-07
-5.7411e-07
0.000269962
-1.0346e-06
-1.03555e-06
-0.00111372
5.31304e-07
5.31873e-07
0.00111473
-0.00111201
-1.54657e-06
1.03548e-06
5.0187e-07
0.00111288
-5.81391e-07
1.06274e-06
7.26197e-08
6.53274e-07
-6.88825e-07
-1.36113e-06
-1.874e-08
-0.00111166
-1.54093e-06
1.03529e-06
5.01846e-07
0.00111253
-5.81259e-07
1.05721e-06
7.27554e-08
6.53298e-07
-6.91335e-07
-1.36081e-06
-1.64637e-08
-0.000272658
1.57551e-06
1.54109e-06
-5.6287e-07
-5.6882e-07
0.000270673
-1.00796e-06
-1.00891e-06
-0.00111771
5.19885e-07
5.20586e-07
0.00111868
-0.00111544
-1.54577e-06
1.00884e-06
4.89534e-07
0.00111627
-5.7496e-07
1.07405e-06
8.17838e-08
6.67957e-07
-6.7244e-07
-1.35061e-06
-9.24959e-09
-0.00111508
-1.53993e-06
1.0086e-06
4.89542e-07
0.00111592
-5.74807e-07
1.06861e-06
8.18994e-08
6.67961e-07
-6.74969e-07
-1.35031e-06
-7.15062e-09
-0.000273327
1.57468e-06
1.54027e-06
-5.55019e-07
-5.60534e-07
0.000271327
-9.67138e-07
-9.6789e-07
-0.00112156
5.00365e-07
5.01014e-07
0.0011225
-0.00111868
-1.53952e-06
9.68202e-07
4.69693e-07
0.00111946
-5.62821e-07
1.08774e-06
9.32086e-08
6.84702e-07
-6.50055e-07
-1.33373e-06
3.82165e-09
-0.00111833
-1.53395e-06
9.67717e-07
4.69082e-07
0.00111911
-5.62705e-07
1.08202e-06
9.32887e-08
6.84512e-07
-6.52837e-07
-1.33362e-06
8.25506e-09
-0.000273935
1.56848e-06
1.534e-06
-5.40062e-07
-5.45672e-07
0.000271918
-8.75007e-07
-8.75552e-07
-0.00112518
4.52848e-07
4.53541e-07
0.00112603
-0.00112167
-1.52e-06
8.75553e-07
4.21091e-07
0.00112235
-5.36069e-07
1.11135e-06
1.16931e-07
7.18275e-07
-6.10804e-07
-1.29757e-06
4.39959e-08
-0.00112132
-1.5144e-06
8.75438e-07
4.20461e-07
0.001122
-5.35938e-07
1.10567e-06
1.17028e-07
7.182e-07
-6.13392e-07
-1.29721e-06
4.71942e-08
-0.000274463
1.54903e-06
1.51447e-06
-5.10866e-07
-5.16453e-07
0.000272426
-6.48746e-07
-6.49006e-07
-0.00112827
3.41439e-07
3.42088e-07
0.00112888
-0.0011241
-1.46466e-06
6.49165e-07
3.05303e-07
0.00112457
-4.7797e-07
1.16839e-06
1.74383e-07
7.96864e-07
-5.27901e-07
-1.2172e-06
1.26731e-07
-0.00112375
-1.45907e-06
6.48743e-07
3.05026e-07
0.00112421
-4.77893e-07
1.16275e-06
1.74431e-07
7.9682e-07
-5.30442e-07
-1.21695e-06
1.2979e-07
-0.000274842
1.49381e-06
1.45917e-06
-4.42832e-07
-4.48359e-07
0.000272781
-3.76638e-07
-3.76728e-07
-0.00113029
2.03971e-07
2.0428e-07
0.00113064
-0.00112558
-1.39558e-06
3.76739e-07
1.8138e-07
0.0011258
-4.04229e-07
1.23323e-06
2.42455e-07
8.86044e-07
-4.36138e-07
-1.12028e-06
2.1205e-07
-0.00112522
-1.39005e-06
3.76602e-07
1.8133e-07
0.00112545
-4.04261e-07
1.22754e-06
2.4243e-07
8.85935e-07
-4.38718e-07
-1.12002e-06
2.14937e-07
-0.000275026
1.42485e-06
1.39013e-06
-3.61905e-07
-3.67344e-07
0.00027294
-2.1846e-07
-2.18516e-07
-0.0011314
1.25926e-07
1.26001e-07
0.00113158
-0.00112622
-1.35296e-06
2.18012e-07
1.0901e-07
0.0011263
-3.60861e-07
1.27096e-06
2.80438e-07
9.39461e-07
-3.81047e-07
-1.05994e-06
2.61618e-07
-0.00112587
-1.3473e-06
2.18055e-07
1.0893e-07
0.00112594
-3.60759e-07
1.26536e-06
2.80521e-07
9.39264e-07
-3.83763e-07
-1.0598e-06
2.6442e-07
-0.000275063
1.38236e-06
1.34746e-06
-3.12921e-07
-3.18459e-07
0.000272964
-1.12095e-07
-1.12096e-07
-0.00113198
6.89849e-08
6.89266e-08
0.00113207
-0.0011264
-1.32837e-06
1.12182e-07
6.2262e-08
0.00112641
-3.38071e-07
1.29277e-06
3.0053e-07
9.71655e-07
-3.48472e-07
-1.02387e-06
2.9122e-07
-0.00112605
-1.32281e-06
1.1246e-07
6.23616e-08
0.00112606
-3.38101e-07
1.28711e-06
3.00496e-07
9.71412e-07
-3.51253e-07
-1.02377e-06
2.93914e-07
-0.000275024
1.35792e-06
1.32301e-06
-2.86693e-07
-2.92159e-07
0.000272922
-3.48316e-08
-3.45122e-08
-0.00113221
2.24912e-08
2.26198e-08
0.00113223
-0.0011264
-1.3123e-06
3.48111e-08
2.66858e-08
0.0011264
-3.28126e-07
1.30685e-06
3.1452e-07
9.89879e-07
-3.29936e-07
-1.00305e-06
3.07938e-07
-0.00112605
-1.30664e-06
3.48185e-08
2.65443e-08
0.00112604
-3.25189e-07
1.30125e-06
3.11759e-07
9.89692e-07
-3.32624e-07
-1.00289e-06
3.10679e-07
-0.000274978
1.34172e-06
1.30684e-06
-2.72181e-07
-2.77599e-07
0.000272879
-4.32374e-09
-4.04593e-09
-0.00113227
2.02821e-09
2.13355e-09
0.00113228
-0.00112638
-1.30661e-06
4.07893e-09
1.23285e-08
0.00112637
-3.23822e-07
1.31146e-06
3.1818e-07
9.95709e-07
-3.23886e-07
-9.96191e-07
3.13243e-07
-0.00112602
-1.30102e-06
4.03579e-09
1.22091e-08
0.00112601
-3.20916e-07
1.30583e-06
3.1534e-07
9.95535e-07
-3.26546e-07
-9.96021e-07
3.16018e-07
-0.000274958
1.33602e-06
1.30117e-06
-2.67861e-07
-2.73244e-07
0.000272862
2.58539e-09
2.96408e-09
-0.00113228
-3.0063e-09
-2.96168e-09
0.00113228
-0.00112636
-1.3056e-06
-3.06022e-09
9.37262e-09
0.00112636
-3.23092e-07
1.31224e-06
3.18776e-07
9.9663e-07
-3.22875e-07
-9.95031e-07
3.14089e-07
-0.00112601
-1.30001e-06
-3.05924e-09
9.28685e-09
0.001126
-3.20194e-07
1.3066e-06
3.15914e-07
9.96444e-07
-3.25538e-07
-9.94864e-07
3.16857e-07
-0.000274952
1.33503e-06
1.30015e-06
-2.67275e-07
-2.72678e-07
0.000272857
3.72045e-09
4.1065e-09
-0.00113228
-4.00011e-09
-3.95385e-09
0.00113228
-0.00112636
-1.30546e-06
-4.17677e-09
8.99728e-09
0.00112636
-3.22998e-07
1.31232e-06
3.18828e-07
9.96657e-07
-3.22812e-07
-9.94948e-07
3.14118e-07
-0.001126
-1.29987e-06
-4.13507e-09
8.9225e-09
0.001126
-3.20117e-07
1.30668e-06
3.1596e-07
9.96465e-07
-3.25488e-07
-9.94791e-07
3.16872e-07
-0.00027495
1.3349e-06
1.30001e-06
-2.67239e-07
-2.72652e-07
0.000272855
3.98612e-09
4.40375e-09
-0.00113228
-4.23017e-09
-4.17334e-09
0.00113228
-0.00112636
-1.30541e-06
-4.39839e-09
8.96804e-09
0.00112636
-3.2298e-07
1.31233e-06
3.18818e-07
9.96647e-07
-3.22827e-07
-9.94932e-07
3.14087e-07
-0.001126
-1.29983e-06
-4.35083e-09
8.88592e-09
0.001126
-3.20098e-07
1.30669e-06
3.15951e-07
9.96449e-07
-3.25503e-07
-9.94783e-07
3.1684e-07
-0.00027495
1.33483e-06
1.29995e-06
-2.67212e-07
-2.72623e-07
0.000272855
4.09348e-09
4.538e-09
-0.00113228
-4.31634e-09
-4.24806e-09
0.00113228
-0.00112636
-1.30539e-06
-4.56179e-09
8.92471e-09
0.00112636
-3.22975e-07
1.31234e-06
3.18822e-07
9.96648e-07
-3.22816e-07
-9.94917e-07
3.14085e-07
-0.001126
-1.29981e-06
-4.51676e-09
8.85138e-09
0.001126
-3.20082e-07
1.3067e-06
3.15959e-07
9.96444e-07
-3.25495e-07
-9.94768e-07
3.1684e-07
-0.000274949
1.3348e-06
1.29993e-06
-2.67212e-07
-2.72612e-07
0.000272854
4.11641e-09
4.58108e-09
-0.00113228
-4.34982e-09
-4.27607e-09
0.00113228
-0.00112636
-1.30539e-06
-4.57177e-09
8.88864e-09
0.00112636
-3.22976e-07
1.31233e-06
3.18808e-07
9.96629e-07
-3.22821e-07
-9.94921e-07
3.14073e-07
-0.001126
-1.29978e-06
-4.579e-09
8.77149e-09
0.001126
-3.2006e-07
1.30671e-06
3.15965e-07
9.96438e-07
-3.25495e-07
-9.94756e-07
3.16824e-07
-0.000274949
1.33482e-06
1.29995e-06
-2.67239e-07
-2.72637e-07
0.000272854
4.07595e-09
4.54818e-09
-0.00113228
-4.31487e-09
-4.27342e-09
0.00113228
-0.00112636
-1.30536e-06
-4.58993e-09
8.8604e-09
0.00112636
-3.22949e-07
1.31234e-06
3.18819e-07
9.96616e-07
-3.22823e-07
-9.94914e-07
3.1406e-07
-0.001126
-1.2998e-06
-4.50543e-09
8.84433e-09
0.001126
-3.20097e-07
1.30668e-06
3.15917e-07
9.96412e-07
-3.25498e-07
-9.94761e-07
3.1681e-07
-0.000274949
1.3348e-06
1.29992e-06
-2.6722e-07
-2.72624e-07
0.000272854
4.04977e-09
4.58482e-09
-0.00113228
-4.3088e-09
-4.2507e-09
0.00113228
-0.00112636
-1.30537e-06
-4.54956e-09
8.9061e-09
0.00112636
-3.22973e-07
1.31231e-06
3.18783e-07
9.96598e-07
-3.22819e-07
-9.94905e-07
3.14054e-07
-0.001126
-1.29977e-06
-4.509e-09
8.82181e-09
0.001126
-3.20074e-07
1.30667e-06
3.15927e-07
9.96384e-07
-3.25496e-07
-9.9475e-07
3.168e-07
-0.000274949
1.33477e-06
1.2999e-06
-2.67199e-07
-2.72603e-07
0.000272854
3.94608e-09
4.61368e-09
-0.00113228
-4.26686e-09
7.62581e-10
0.00113228
-0.00112636
-1.30536e-06
-4.49709e-09
8.90194e-09
0.00112636
-3.22975e-07
1.31227e-06
3.18767e-07
9.96557e-07
-3.22834e-07
-9.94904e-07
3.14024e-07
-0.001126
-1.29974e-06
-4.47683e-09
8.83236e-09
-3.20058e-07
1.30664e-06
3.15934e-07
9.96326e-07
-3.25498e-07
-9.94735e-07
3.16773e-07
-0.000274949
1.33476e-06
1.2999e-06
-2.67204e-07
-2.72603e-07
0.000272854
5.21158e-06
5.22242e-06
0.000260569
-0.000259158
-5.92951e-06
-5.91539e-06
5.06485e-06
0.000261404
-0.000258672
-5.95802e-06
3.37251e-06
-5.21165e-06
5.05982e-06
0.000261437
-0.000258687
-5.96602e-06
3.36767e-06
5.21224e-06
0.000260582
-0.000259161
-5.90091e-06
-5.9441e-06
5.05792e-06
0.000261468
-0.000258702
-5.9635e-06
3.36235e-06
5.06465e-06
-5.2139e-06
0.000261412
-0.000258672
3.37757e-06
-5.9682e-06
1.07133e-05
1.06195e-05
-0.000252643
-0.000256072
-0.000255112
-0.000255113
-6.43351e-06
-4.10908e-06
-6.66534e-06
-6.43386e-06
-4.10998e-06
-6.67088e-06
-5.05287e-06
0.00104217
1.06728e-05
1.06248e-05
-0.000252645
-0.00025607
-0.000255115
-0.000255115
-6.43611e-06
-4.10935e-06
-6.66808e-06
-6.43132e-06
-4.10476e-06
-6.6633e-06
-5.05252e-06
0.00104205
1.07331e-05
1.06854e-05
-0.000252638
-0.000256065
-0.000255113
-0.000255107
-6.43597e-06
-4.11673e-06
-6.66802e-06
-6.43617e-06
-4.107e-06
-6.66563e-06
-5.06722e-06
-5.05533e-06
0.00104212
1.07284e-05
1.06297e-05
-0.00025264
-0.000256067
-0.000255113
-0.000255113
-6.43086e-06
-4.11168e-06
-6.66302e-06
-6.43629e-06
-4.10982e-06
-6.66835e-06
-0.000258697
-5.95586e-06
3.35731e-06
-5.21148e-06
0.000261399
-0.000258669
3.37255e-06
-5.95794e-06
5.21463e-06
0.000260562
-0.000259146
-5.90321e-06
-5.94138e-06
-0.000258682
3.36485e-06
-5.953e-06
-5.22239e-06
0.000261465
-0.000258697
3.35985e-06
-5.96097e-06
-0.000259156
-5.92938e-06
-5.91542e-06
5.63354e-06
5.6706e-06
-4.87237e-06
-4.86614e-06
0.000259004
-8.22811e-07
-7.86675e-07
0.000261567
-0.000259437
-2.64208e-07
-2.56752e-07
7.13385e-06
0.00105879
-4.56695e-06
-1.5539e-06
-2.19191e-06
-2.55298e-06
-6.66466e-06
-7.06334e-06
-3.17666e-06
-0.000263251
-0.000259683
-0.000262786
-5.64398e-06
1.45802e-05
7.07324e-06
0.00105915
-4.58613e-06
-1.5463e-06
-2.19502e-06
-2.56379e-06
-6.69619e-06
-7.08016e-06
-3.19236e-06
-0.000263325
-0.000259713
-0.000262827
0.00106192
1.9593e-06
-0.00106087
9.12839e-07
-1.71891e-06
-1.45397e-07
-6.95864e-07
-1.47662e-06
-2.62945e-07
-8.13891e-07
3.72955e-07
8.30926e-07
0.00106234
1.95978e-06
-0.00106128
9.0781e-07
-1.72935e-06
-1.38125e-07
-7.01419e-07
-1.4824e-06
-2.63053e-07
-8.14182e-07
3.78395e-07
-4.87052e-06
-4.863e-06
0.000259014
-7.89391e-07
0.000261593
-0.000259457
-2.61502e-07
-2.53875e-07
6.85522e-06
0.00105962
-4.5912e-06
-1.61287e-06
-2.20799e-06
-2.56216e-06
-6.67873e-06
-7.0756e-06
-3.18765e-06
-0.000263346
-0.000259741
-0.00026284
-5.64366e-06
1.46146e-05
7.16746e-06
0.00105893
-4.58592e-06
-1.55633e-06
-2.20003e-06
-2.56585e-06
-6.69545e-06
-7.07917e-06
-3.19202e-06
-0.000259683
-0.000263302
-0.000262799
0.00106293
1.96695e-06
-0.00106187
9.01464e-07
-1.68891e-06
-1.4784e-07
-6.96156e-07
-1.47959e-06
-2.62983e-07
-8.11537e-07
3.7543e-07
8.20209e-07
0.00106203
1.96997e-06
-0.001061
9.23055e-07
-1.71905e-06
-1.43014e-07
-6.96086e-07
-1.47939e-06
-2.60498e-07
-8.16603e-07
3.72928e-07
1.46115e-05
7.15479e-06
0.00105874
-4.56685e-06
-1.55377e-06
-2.18926e-06
-2.55305e-06
-6.66468e-06
-3.17674e-06
-7.06111e-06
-0.000259678
-0.000263246
-0.000262781
1.96624e-06
-0.00106162
9.06752e-07
-1.68879e-06
-1.45236e-07
-6.93212e-07
-1.47686e-06
-2.65314e-07
3.70142e-07
-8.11279e-07
8.20173e-07
0.00106181
1.96967e-06
-0.00106079
9.2311e-07
-1.71896e-06
-1.42916e-07
-6.95842e-07
-1.47926e-06
-2.62901e-07
-8.13804e-07
3.75532e-07
-4.87523e-06
-4.86284e-06
0.000258993
-7.81201e-07
0.000261544
-0.000259419
-2.64584e-07
-2.59193e-07
1.4513e-05
6.87379e-06
0.00105957
-4.59138e-06
-1.61287e-06
-2.20805e-06
-2.56198e-06
-6.67855e-06
-3.18755e-06
-7.07286e-06
-0.000259731
-0.000263343
-0.000262835
1.97132e-06
-0.00106132
9.22126e-07
-1.68633e-06
-1.47699e-07
-6.95889e-07
-1.47372e-06
-2.60429e-07
3.70191e-07
-8.13844e-07
7.81295e-07
0.00106284
1.97189e-06
-0.00106179
9.11787e-07
-1.68387e-06
-1.47838e-07
-6.93546e-07
-1.47684e-06
-2.62831e-07
-8.13988e-07
3.70331e-07
-0.000259434
-2.61719e-07
-2.5941e-07
1.64221e-06
1.60695e-06
-6.87925e-07
-6.9628e-07
0.000259702
-9.00818e-07
-8.61797e-07
0.000262806
-0.000260642
-2.045e-07
-1.96847e-07
7.69382e-07
0.0010632
-6.70373e-07
8.54853e-07
-1.28944e-07
3.94817e-07
-8.00026e-07
-1.42059e-06
-2.59015e-07
-1.64753e-06
1.6225e-06
7.64166e-07
0.00106362
-6.73291e-07
8.62942e-07
-1.28966e-07
4.00265e-07
-8.0298e-07
-1.42637e-06
-2.56732e-07
0.00106714
1.39091e-06
-0.00106581
6.76352e-07
-1.6034e-06
-8.96846e-08
-6.46303e-07
-1.38608e-06
-2.23221e-07
-7.88566e-07
4.40246e-07
9.06202e-07
0.00106758
1.39124e-06
-0.00106624
6.71252e-07
-1.60875e-06
-8.98058e-08
-6.46564e-07
-1.38914e-06
-2.23315e-07
-7.88905e-07
4.43066e-07
-6.88363e-07
-6.95652e-07
0.00025972
-8.67067e-07
0.000262832
-0.000260655
-2.04531e-07
-1.99378e-07
7.62821e-07
0.00106422
-6.68043e-07
8.18665e-07
-1.31354e-07
3.97327e-07
-8.03025e-07
-1.42369e-06
-2.56674e-07
-1.64226e-06
1.62777e-06
7.6944e-07
0.0010633
-6.73268e-07
8.54901e-07
-1.28996e-07
3.94848e-07
-8.02719e-07
-1.42076e-06
-2.56575e-07
0.00106817
1.39245e-06
-0.00106685
6.75222e-07
-1.5654e-06
-9.44318e-08
-6.41324e-07
-1.38378e-06
-2.2084e-07
-7.88893e-07
4.42943e-07
8.95523e-07
0.00106726
1.39099e-06
-0.00106592
6.76413e-07
-1.60084e-06
-9.2177e-08
-6.46495e-07
-1.38622e-06
-2.23175e-07
-7.88609e-07
4.4307e-07
1.62235e-06
7.69456e-07
0.0010631
-6.73049e-07
8.522e-07
-1.31332e-07
3.94759e-07
-8.02648e-07
-2.5662e-07
-1.42067e-06
1.39197e-06
-0.00106658
6.80613e-07
-1.57322e-06
-9.67644e-08
-6.41168e-07
-1.38371e-06
-2.20873e-07
4.42791e-07
-7.88714e-07
8.98111e-07
0.00106705
1.3857e-06
-0.00106571
6.76453e-07
-1.60078e-06
-9.20715e-08
-6.46328e-07
-1.38616e-06
-2.23248e-07
-7.88557e-07
4.40262e-07
-6.911e-07
-6.93164e-07
0.000259682
-8.5896e-07
0.00026278
-0.000260621
-2.04743e-07
-1.99381e-07
1.62305e-06
7.57786e-07
0.00106414
-6.68083e-07
8.13234e-07
-1.36289e-07
3.92092e-07
-8.00232e-07
-2.61399e-07
-1.41819e-06
1.39195e-06
-0.00106626
6.75544e-07
-1.56265e-06
-9.67575e-08
-6.41107e-07
-1.37808e-06
-2.23219e-07
4.34633e-07
-7.88628e-07
8.61644e-07
0.00106808
1.3923e-06
-0.00106675
6.75311e-07
-1.56286e-06
-9.68946e-08
-6.41399e-07
-1.38638e-06
-2.23229e-07
-7.91507e-07
4.40225e-07
-0.000260629
-2.04617e-07
-1.99527e-07
1.60175e-06
1.56892e-06
-6.57601e-07
-6.65906e-07
0.000260959
-9.24156e-07
-8.87669e-07
0.000264088
-0.000261911
-1.85086e-07
-1.79973e-07
6.63186e-07
0.00106849
-6.46598e-07
9.06723e-07
-8.50203e-08
4.44032e-07
-7.89462e-07
-1.3842e-06
-2.22141e-07
-1.60714e-06
1.36606e-06
6.73834e-07
0.00106891
-6.4684e-07
9.12176e-07
-8.50846e-08
4.49627e-07
-7.9243e-07
-1.38989e-06
-2.17404e-07
0.0010725
1.35653e-06
-0.00107118
6.51961e-07
-1.60373e-06
-7.19813e-08
-6.42014e-07
-1.39472e-06
-2.0763e-07
-7.92884e-07
4.5544e-07
9.29678e-07
0.00107292
1.35695e-06
-0.0010716
6.5221e-07
-1.60907e-06
-6.9668e-08
-6.44902e-07
-1.40308e-06
-2.02854e-07
-7.98484e-07
4.63819e-07
-6.60615e-07
-6.6286e-07
0.000260979
-8.90367e-07
0.000264117
-0.000261937
-1.82426e-07
-1.77186e-07
6.62132e-07
0.00106953
-6.4431e-07
8.70346e-07
-8.97477e-08
4.46702e-07
-7.92386e-07
-1.38981e-06
-2.17352e-07
-1.59915e-06
1.36591e-06
6.68563e-07
0.0010686
-6.46804e-07
9.0412e-07
-8.50751e-08
4.46846e-07
-7.92103e-07
-1.38696e-06
-2.1724e-07
0.00107353
1.35802e-06
-0.0010722
6.50948e-07
-1.56807e-06
-7.43025e-08
-6.39635e-07
-1.39766e-06
-2.02821e-07
-7.98479e-07
4.58159e-07
9.24245e-07
0.0010726
1.3568e-06
-0.00107128
6.52187e-07
-1.60375e-06
-6.96462e-08
-6.44853e-07
-1.39739e-06
-2.02699e-07
-7.98157e-07
4.58266e-07
1.37083e-06
6.63312e-07
0.0010684
-6.43939e-07
9.01381e-07
-8.97571e-08
4.46709e-07
-7.92081e-07
-2.19748e-07
-1.38693e-06
1.3576e-06
-0.00107194
6.51119e-07
-1.57065e-06
-7.41992e-08
-6.39453e-07
-1.39496e-06
-2.05279e-07
4.55311e-07
-7.95707e-07
9.18775e-07
0.0010724
1.35651e-06
-0.00107108
6.52101e-07
-1.59845e-06
-7.43015e-08
-6.39292e-07
-1.39479e-06
-2.05226e-07
-7.95502e-07
4.55428e-07
-6.60706e-07
-6.6541e-07
0.000260943
-8.84895e-07
0.000264067
-0.000261896
-1.85155e-07
-1.7724e-07
1.36702e-06
6.67445e-07
0.00106943
-6.39013e-07
8.62248e-07
-9.45394e-08
4.4406e-07
-7.89711e-07
-2.19743e-07
-1.38453e-06
1.35746e-06
-0.0010716
6.51197e-07
-1.56532e-06
-7.65283e-08
-6.36726e-07
-1.39465e-06
-2.02805e-07
4.55318e-07
-7.98218e-07
8.84859e-07
0.00107344
1.35793e-06
-0.00107212
6.51032e-07
-1.56554e-06
-7.66824e-08
-6.37034e-07
-1.39239e-06
-2.05224e-07
-7.95777e-07
4.52766e-07
-0.000261909
-1.82625e-07
-1.77389e-07
1.60279e-06
1.56708e-06
-6.49095e-07
-6.54792e-07
0.000262222
-9.51812e-07
-9.15174e-07
0.000265307
-0.000263129
-1.57965e-07
-1.52768e-07
6.45319e-07
0.00107381
-6.3949e-07
9.30851e-07
-6.60209e-08
4.60644e-07
-7.9191e-07
-1.39612e-06
-2.01085e-07
-1.60814e-06
1.34787e-06
6.45562e-07
0.00107424
-6.42376e-07
9.36381e-07
-6.37151e-08
4.69039e-07
-7.97508e-07
-1.40448e-06
-1.96301e-07
0.00107767
1.31241e-06
-0.0010764
6.23274e-07
-1.59789e-06
-4.79877e-08
-6.3016e-07
-1.39698e-06
-1.79551e-07
-7.85147e-07
4.78542e-07
9.57361e-07
0.0010781
1.31285e-06
-0.00107682
6.23558e-07
-1.60326e-06
-4.57226e-08
-6.3305e-07
-1.40537e-06
-1.74761e-07
-7.90754e-07
4.86972e-07
-6.52176e-07
-6.56897e-07
0.000262248
-9.17873e-07
0.000265336
-0.000263155
-1.55287e-07
-1.49984e-07
6.44342e-07
0.00107485
-6.37104e-07
8.94322e-07
-6.83307e-08
4.63373e-07
-7.97507e-07
-1.39906e-06
-1.96274e-07
-1.60281e-06
1.34771e-06
6.45541e-07
0.00107392
-6.42326e-07
9.30945e-07
-6.36928e-08
4.63483e-07
-7.97183e-07
-1.39878e-06
-1.96151e-07
0.00107871
1.31373e-06
-0.00107743
6.22273e-07
-1.56203e-06
-5.0244e-08
-6.27747e-07
-1.39991e-06
-1.74725e-07
-7.90754e-07
4.81307e-07
9.5191e-07
0.00107778
1.31264e-06
-0.00107651
6.23488e-07
-1.59789e-06
-4.56955e-08
-6.3299e-07
-1.39964e-06
-1.74603e-07
-7.90431e-07
4.81412e-07
1.34741e-06
6.45454e-07
0.00107372
-6.36761e-07
9.25458e-07
-6.83328e-08
4.60637e-07
-7.94526e-07
-1.98678e-07
-1.39618e-06
1.31337e-06
-0.00107717
6.22439e-07
-1.56464e-06
-5.01573e-08
-6.27578e-07
-1.3972e-06
-1.77194e-07
4.78441e-07
-7.87978e-07
9.46387e-07
0.00107757
1.31236e-06
-0.0010763
6.23372e-07
-1.59259e-06
-5.02596e-08
-6.2741e-07
-1.39704e-06
-1.77143e-07
-7.8777e-07
4.78541e-07
-6.49584e-07
-6.56885e-07
0.000262207
-9.12406e-07
0.000265286
-0.000263114
-1.57984e-07
-1.5004e-07
1.34881e-06
6.44388e-07
0.00107476
-6.34492e-07
8.91516e-07
-7.06951e-08
4.57974e-07
-7.94805e-07
-1.98674e-07
-1.39378e-06
1.31316e-06
-0.00107683
6.22462e-07
-1.55925e-06
-5.24245e-08
-6.24825e-07
-1.39691e-06
-1.74724e-07
4.78433e-07
-7.90498e-07
9.12357e-07
0.00107862
1.31362e-06
-0.00107735
6.22326e-07
-1.55949e-06
-5.25682e-08
-6.25116e-07
-1.39463e-06
-1.77132e-07
-7.88049e-07
4.75874e-07
-0.000263127
-1.55489e-07
-1.50188e-07
1.59586e-06
1.55997e-06
-6.32954e-07
-6.3866e-07
0.000263423
-9.78396e-07
-9.41618e-07
0.000266452
-0.000264275
-1.30866e-07
-1.25586e-07
6.15974e-07
0.00107893
-6.26792e-07
9.58714e-07
-4.22487e-08
4.84921e-07
-7.82008e-07
-1.39639e-06
-1.72174e-07
-1.60124e-06
1.30025e-06
6.16279e-07
0.00107935
-6.29691e-07
9.64267e-07
-4.0006e-08
4.9335e-07
-7.87636e-07
-1.40478e-06
-1.67396e-07
0.0010826
1.26226e-06
-0.00108139
5.95858e-07
-1.58986e-06
-2.65525e-08
-6.17247e-07
-1.39357e-06
-1.50542e-07
-7.7175e-07
5.04113e-07
9.83972e-07
0.00108303
1.26277e-06
-0.00108182
5.962e-07
-1.59526e-06
-2.43818e-08
-6.20143e-07
-1.40199e-06
-1.4574e-07
-7.7737e-07
5.12596e-07
-6.36068e-07
-6.40786e-07
0.000263449
-9.44313e-07
0.000266481
-0.000264302
-1.28169e-07
-1.22795e-07
6.15037e-07
0.00107997
-6.2438e-07
9.22031e-07
-4.44929e-08
4.87694e-07
-7.87622e-07
-1.39931e-06
-1.67345e-07
-1.59586e-06
1.3e-06
6.16198e-07
0.00107903
-6.29623e-07
9.5881e-07
-3.99763e-08
4.878e-07
-7.87299e-07
-1.39904e-06
-1.67219e-07
0.00108364
1.26341e-06
-0.00108243
5.94897e-07
-1.55384e-06
-2.87164e-08
-6.1481e-07
-1.39648e-06
-1.45715e-07
-7.77364e-07
5.06913e-07
9.78502e-07
0.00108271
1.2625e-06
-0.0010815
5.96106e-07
-1.58986e-06
-2.43503e-08
-6.20075e-07
-1.39621e-06
-1.45581e-07
-7.77044e-07
5.07022e-07
1.29971e-06
6.1609e-07
0.00107883
-6.24047e-07
9.53271e-07
-4.45091e-08
4.8492e-07
-7.84637e-07
-1.69767e-07
-1.39644e-06
1.2631e-06
-0.00108217
5.95092e-07
-1.55647e-06
-2.86507e-08
-6.14669e-07
-1.39376e-06
-1.48182e-07
5.04029e-07
-7.74595e-07
9.72924e-07
0.0010825
1.26219e-06
-0.0010813
5.9594e-07
-1.58456e-06
-2.87427e-08
-6.14491e-07
-1.39362e-06
-1.48146e-07
-7.74383e-07
5.04115e-07
-6.33432e-07
-6.40758e-07
0.000263407
-9.38841e-07
0.000266431
-0.00026426
-1.30845e-07
-1.22867e-07
1.30093e-06
6.15042e-07
0.00107988
-6.21742e-07
9.19214e-07
-4.67948e-08
4.82253e-07
-7.84914e-07
-1.69754e-07
-1.39403e-06
1.26281e-06
-0.00108183
5.95053e-07
-1.55103e-06
-3.08257e-08
-6.11878e-07
-1.39349e-06
-1.4573e-07
5.04006e-07
-7.77123e-07
9.38773e-07
0.00108355
1.26327e-06
-0.00108234
5.94936e-07
-1.55129e-06
-3.09578e-08
-6.12169e-07
-1.3912e-06
-1.48125e-07
-7.7466e-07
5.01443e-07
-0.000264273
-1.28396e-07
-1.23016e-07
1.588e-06
1.55194e-06
-6.16408e-07
-6.22112e-07
0.000264551
-1.00231e-06
-9.65392e-07
0.000267523
-0.000265349
-1.06205e-07
-1.0085e-07
5.89739e-07
0.0010838
-6.14337e-07
9.84628e-07
-2.18288e-08
5.10518e-07
-7.68188e-07
-1.39243e-06
-1.43546e-07
-1.5934e-06
1.25065e-06
5.90068e-07
0.00108422
-6.17235e-07
9.90207e-07
-1.96969e-08
5.19013e-07
-7.73823e-07
-1.40084e-06
-1.38761e-07
0.00108728
1.21555e-06
-0.00108614
5.73379e-07
-1.58304e-06
-9.33142e-09
-6.0665e-07
-1.38862e-06
-1.23438e-07
-7.57555e-07
5.29675e-07
1.00793e-06
0.00108771
1.216e-06
-0.00108656
5.73586e-07
-1.58844e-06
-7.38402e-09
-6.09508e-07
-1.39701e-06
-1.18599e-07
-7.63139e-07
5.38239e-07
-6.19533e-07
-6.24265e-07
0.000264577
-9.68125e-07
0.000267552
-0.000265375
-1.03421e-07
-9.80611e-08
5.88849e-07
0.00108484
-6.11904e-07
9.47803e-07
-2.39688e-08
5.13321e-07
-7.73811e-07
-1.39534e-06
-1.38725e-07
-1.58799e-06
1.25039e-06
5.90002e-07
0.0010839
-6.17164e-07
9.84734e-07
-1.96638e-08
5.13436e-07
-7.73484e-07
-1.39506e-06
-1.38586e-07
0.00108833
1.21654e-06
-0.00108718
5.72316e-07
-1.54684e-06
-1.12929e-08
-6.04178e-07
-1.39154e-06
-1.18646e-07
-7.63199e-07
5.32475e-07
1.00243e-06
0.00108739
1.21583e-06
-0.00108624
5.73575e-07
-1.58304e-06
-7.36453e-09
-6.0947e-07
-1.39125e-06
-1.18484e-07
-7.62861e-07
5.32614e-07
1.25005e-06
5.8986e-07
0.0010837
-6.11586e-07
9.7913e-07
-2.3998e-08
5.10517e-07
-7.70831e-07
-1.41159e-07
-1.39248e-06
1.21623e-06
-0.00108691
5.72441e-07
-1.54944e-06
-1.12168e-08
-6.04009e-07
-1.38882e-06
-1.21114e-07
5.29568e-07
-7.60418e-07
9.96777e-07
0.00108719
1.21543e-06
-0.00108604
5.73375e-07
-1.57775e-06
-1.13335e-08
-6.03884e-07
-1.38868e-06
-1.21073e-07
-7.60214e-07
5.29661e-07
-6.16852e-07
-6.24247e-07
0.000264535
-9.62589e-07
0.000267502
-0.000265333
-1.06159e-07
-9.81449e-08
1.2511e-06
5.88835e-07
0.00108475
-6.09254e-07
9.44956e-07
-2.61761e-08
5.07841e-07
-7.71106e-07
-1.41139e-07
-1.39006e-06
1.21591e-06
-0.00108657
5.72421e-07
-1.54401e-06
-1.32464e-08
-6.01242e-07
-1.38856e-06
-1.18687e-07
5.2953e-07
-7.62976e-07
9.62514e-07
0.00108824
1.21637e-06
-0.00108709
5.72321e-07
-1.54431e-06
-1.33614e-08
-6.0153e-07
-1.38627e-06
-1.21061e-07
-7.60497e-07
5.26965e-07
-0.000265346
-1.03752e-07
-9.83062e-08
1.58162e-06
1.54538e-06
-6.01864e-07
-6.07652e-07
0.000265606
-1.02551e-06
-9.85851e-07
0.000268529
-0.000266353
-8.52278e-08
-7.9503e-08
5.6849e-07
0.00108841
-6.04441e-07
1.01057e-06
-3.65654e-09
5.35922e-07
-7.54145e-07
-1.38733e-06
-1.17128e-07
-1.58703e-06
1.20516e-06
5.68544e-07
0.00108885
-6.07336e-07
1.01346e-06
-3.64902e-09
5.44483e-07
-7.5974e-07
-1.39572e-06
-1.12305e-07
0.00109173
1.1744e-06
-0.00109064
5.54839e-07
-1.58133e-06
1.20699e-08
-6.02445e-07
-1.38404e-06
-9.97094e-08
-7.44862e-07
5.53801e-07
1.02838e-06
0.00109217
1.17464e-06
-0.00109107
5.54885e-07
-1.58409e-06
1.20641e-08
-6.02608e-07
-1.38975e-06
-9.49209e-08
-7.50478e-07
5.59611e-07
-6.04954e-07
-6.09801e-07
0.000265632
-9.88556e-07
0.000268555
-0.000266379
-8.2526e-08
-7.67382e-08
5.6751e-07
0.00108946
-6.01984e-07
9.70884e-07
-7.67881e-09
5.38727e-07
-7.59792e-07