/*--------------------------------*- C++ -*----------------------------------*\
| =========                 |                                                 |
| \\      /  F ield         | OpenFOAM: The Open Source CFD Toolbox           |
|  \\    /   O peration     | Version:  v1912                                 |
|   \\  /    A nd           | Website:  www.openfoam.com                      |
|    \\/     M anipulation  |                                                 |
\*---------------------------------------------------------------------------*/
FoamFile
{
    version     2.0;
    format      ascii;
    class       volVectorField;
    location    "80";
    object      U;
}
// * * * * * * * * * * * * * * * * * * * * * * * * * * * * * * * * * * * * * //

dimensions      [0 1 -1 0 0 0 0];


internalField   nonuniform List<vector> 
57100
(
(0.000106004 0.000105941 0.100294)
(-0.000188856 0.00012035 0.10038)
(0.000120437 -0.000188859 0.10038)
(-0.000240597 -0.000240615 0.100392)
(9.56982e-05 9.56392e-05 0.100865)
(-0.000152068 9.20444e-05 0.100944)
(9.2053e-05 -0.00015206 0.100944)
(-0.00019285 -0.000192919 0.100967)
(9.75951e-05 9.75725e-05 0.101371)
(-0.000153433 9.04126e-05 0.101449)
(9.03987e-05 -0.000153439 0.101449)
(-0.000197353 -0.000197416 0.101471)
(9.5381e-05 9.53612e-05 0.101893)
(-0.000150381 8.73564e-05 0.101958)
(8.737e-05 -0.000150382 0.101958)
(-0.000195102 -0.000195155 0.101965)
(9.20928e-05 9.20823e-05 0.102399)
(-0.000144311 8.29081e-05 0.102446)
(8.2924e-05 -0.000144313 0.102446)
(-0.000190141 -0.000190196 0.102432)
(8.88204e-05 8.88207e-05 0.102886)
(-0.000138298 7.8915e-05 0.102912)
(7.89352e-05 -0.000138302 0.102912)
(-0.00018494 -0.000184997 0.102871)
(8.58623e-05 8.58714e-05 0.103354)
(-0.000132906 7.56136e-05 0.103354)
(7.56516e-05 -0.000132916 0.103354)
(-0.000180471 -0.000180545 0.103281)
(8.3363e-05 8.33103e-05 0.103804)
(-0.000128425 7.31891e-05 0.103774)
(7.31896e-05 -0.000128418 0.103774)
(-0.000177092 -0.000177169 0.103664)
(8.11555e-05 8.10958e-05 0.104238)
(-0.000124711 7.1505e-05 0.104175)
(7.14963e-05 -0.000124701 0.104175)
(-0.000175315 -0.000175371 0.104023)
(7.93044e-05 7.92558e-05 0.104659)
(-0.000121506 7.01192e-05 0.104558)
(7.01134e-05 -0.000121496 0.104558)
(-0.000174176 -0.000174243 0.104359)
(7.76609e-05 7.76219e-05 0.105067)
(-0.000118663 6.88915e-05 0.104925)
(6.88992e-05 -0.000118655 0.104925)
(-0.000173401 -0.000173478 0.104674)
(7.62067e-05 7.61671e-05 0.105465)
(-0.000116187 6.7777e-05 0.105277)
(6.77813e-05 -0.000116174 0.105277)
(-0.000172735 -0.000172828 0.104968)
(7.47865e-05 7.47545e-05 0.105852)
(-0.000113828 6.65745e-05 0.105615)
(6.659e-05 -0.000113803 0.105615)
(-0.00017183 -0.000171992 0.105242)
(7.29823e-05 7.29696e-05 0.106229)
(-0.000110823 6.49479e-05 0.105938)
(6.49451e-05 -0.000110804 0.105938)
(-0.000170254 -0.000170271 0.105494)
(7.02792e-05 7.02713e-05 0.106594)
(-0.00010637 6.27216e-05 0.106244)
(6.27077e-05 -0.000106429 0.106244)
(-0.000166141 -0.000166157 0.105722)
(6.3409e-05 6.3415e-05 0.106934)
(-9.68529e-05 5.73941e-05 0.106524)
(5.73635e-05 -9.68862e-05 0.106524)
(-0.000156628 -0.000156636 0.105919)
(4.77057e-05 4.77222e-05 0.107217)
(-7.29354e-05 4.25749e-05 0.106745)
(4.25371e-05 -7.28947e-05 0.106745)
(-0.000133043 -0.000133048 0.106058)
(2.75378e-05 2.75471e-05 0.107396)
(-4.37056e-05 2.59095e-05 0.106874)
(2.58988e-05 -4.36941e-05 0.106874)
(-0.000103768 -0.000103755 0.106122)
(1.59308e-05 1.59262e-05 0.107493)
(-2.58535e-05 1.60341e-05 0.106927)
(1.6019e-05 -2.58649e-05 0.106927)
(-8.5539e-05 -8.55885e-05 0.106133)
(7.91992e-06 7.91038e-06 0.107543)
(-1.38651e-05 9.65629e-06 0.106941)
(9.66647e-06 -1.39015e-05 0.10694)
(-7.56094e-05 -7.56489e-05 0.106116)
(1.60539e-06 1.63054e-06 0.107563)
(-5.4093e-06 4.78386e-06 0.106939)
(4.76413e-06 -5.41342e-06 0.106939)
(-6.94759e-05 -6.95029e-05 0.106099)
(-1.09984e-06 -1.08439e-06 0.107567)
(-2.06611e-06 2.80731e-06 0.106937)
(2.79238e-06 -2.06139e-06 0.106937)
(-6.74906e-05 -6.75051e-05 0.106092)
(-1.7797e-06 -1.76815e-06 0.107568)
(-1.41478e-06 2.38601e-06 0.106936)
(2.37791e-06 -1.41756e-06 0.106936)
(-6.71771e-05 -6.71996e-05 0.10609)
(-1.89677e-06 -1.88357e-06 0.107568)
(-1.35276e-06 2.32514e-06 0.106936)
(2.31744e-06 -1.35833e-06 0.106935)
(-6.71388e-05 -6.71641e-05 0.106089)
(-1.92283e-06 -1.90817e-06 0.107568)
(-1.33871e-06 2.31406e-06 0.106936)
(2.30627e-06 -1.34544e-06 0.106935)
(-6.71186e-05 -6.71442e-05 0.106089)
(-1.9329e-06 -1.91766e-06 0.107568)
(-1.32491e-06 2.30381e-06 0.106935)
(2.29905e-06 -1.33386e-06 0.106935)
(-6.71138e-05 -6.71331e-05 0.106089)
(-1.93684e-06 -1.92136e-06 0.107568)
(-1.32521e-06 2.30059e-06 0.106935)
(2.28869e-06 -1.32934e-06 0.106935)
(-6.71207e-05 -6.71393e-05 0.106089)
(-1.93294e-06 -1.92114e-06 0.107568)
(-1.32372e-06 2.296e-06 0.106935)
(2.29692e-06 -1.33496e-06 0.106935)
(-6.7111e-05 -6.71321e-05 0.106089)
(-1.93167e-06 -1.9198e-06 0.107568)
(-1.32604e-06 2.30057e-06 0.106935)
(2.29361e-06 -1.33466e-06 0.106935)
(-6.71002e-05 -6.71208e-05 0.106089)
(-1.92757e-06 -1.91195e-06 0.107568)
(-1.33047e-06 2.30064e-06 0.106935)
(2.29386e-06 -1.3389e-06 0.106935)
(-6.70959e-05 -6.71135e-05 0.106089)
(0.000133865 0.000133852 0.100279)
(0.000122674 0.000150718 0.100225)
(-0.000122668 0.000150695 0.100225)
(-0.000133864 0.000133819 0.100279)
(0.00015074 0.000122628 0.100225)
(0.000150715 -0.000122651 0.100225)
(8.893e-05 8.88746e-05 0.100148)
(-8.89186e-05 8.88701e-05 0.100148)
(8.89017e-05 -8.89285e-05 0.100148)
(-8.88975e-05 -8.89228e-05 0.100148)
(-0.000150737 0.000122625 0.100225)
(-0.000150728 -0.00012264 0.100225)
(0.00013386 -0.000133886 0.100279)
(0.00012263 -0.000150749 0.100225)
(-0.000122627 -0.000150724 0.100225)
(-0.000133874 -0.000133852 0.100279)
(0.000240641 0.00024061 0.100392)
(0.000100811 0.000100714 0.100893)
(0.000120483 0.00018875 0.10038)
(-0.000120437 0.000188787 0.10038)
(8.26924e-05 0.000136362 0.100825)
(-8.26576e-05 0.000136375 0.100825)
(-0.000240645 0.000240567 0.100392)
(-0.000100784 0.000100662 0.100893)
(0.000188893 0.000120383 0.10038)
(0.000188838 -0.000120456 0.10038)
(0.000136375 8.26514e-05 0.100826)
(0.00013638 -8.26774e-05 0.100826)
(-0.000188819 -0.000120447 0.10038)
(-0.000136333 8.26591e-05 0.100825)
(-0.000136352 -8.26789e-05 0.100826)
(0.000240572 -0.000240665 0.100392)
(0.000100767 -0.000100807 0.100893)
(-0.000120418 -0.00018888 0.10038)
(8.26616e-05 -0.000136329 0.100826)
(-8.26449e-05 -0.000136347 0.100826)
(-0.000100768 -0.000100811 0.100893)
(0.000192924 0.000192797 0.100967)
(9.97091e-05 9.96413e-05 0.101396)
(9.20554e-05 0.0001521 0.100944)
(-9.20307e-05 0.000152106 0.100944)
(9.12748e-05 0.000154028 0.10132)
(-9.12752e-05 0.000154037 0.10132)
(-0.000192899 0.000192739 0.100967)
(-9.97059e-05 9.96336e-05 0.101395)
(0.000152107 9.20259e-05 0.100944)
(0.000152102 -9.20398e-05 0.100944)
(0.000154008 9.12753e-05 0.10132)
(0.00015403 -9.12783e-05 0.101321)
(-0.000152092 -9.20463e-05 0.100944)
(-0.000153998 9.12992e-05 0.10132)
(-0.000154015 -9.12742e-05 0.101321)
(0.000192841 -0.000192929 0.100967)
(9.96834e-05 -9.97075e-05 0.101396)
(-9.20338e-05 -0.000152087 0.100944)
(9.12861e-05 -0.000153995 0.101321)
(-9.12913e-05 -0.000154016 0.101321)
(-9.9701e-05 -9.97244e-05 0.101396)
(0.000197406 0.000197296 0.101471)
(9.13519e-05 9.12855e-05 0.101893)
(9.03781e-05 0.000153477 0.101449)
(-9.03839e-05 0.000153479 0.101449)
(8.83418e-05 0.000151642 0.101832)
(-8.83214e-05 0.000151633 0.101832)
(-0.000197401 0.000197277 0.101471)
(-9.13305e-05 9.12763e-05 0.101893)
(0.000153448 9.03929e-05 0.101449)
(0.000153475 -9.03841e-05 0.101449)
(0.000151595 8.83459e-05 0.101832)
(0.000151617 -8.83184e-05 0.101832)
(-0.000153463 -9.0388e-05 0.101449)
(-0.000151586 8.83439e-05 0.101832)
(-0.000151624 -8.83352e-05 0.101832)
(0.000197333 -0.000197414 0.101471)
(9.12948e-05 -9.13548e-05 0.101893)
(-9.04104e-05 -0.000153466 0.101449)
(8.83539e-05 -0.000151585 0.101832)
(-8.83476e-05 -0.0001516 0.101832)
(-9.13769e-05 -9.13916e-05 0.101893)
(0.000195122 0.000195019 0.101965)
(8.1215e-05 8.11577e-05 0.102366)
(8.73539e-05 0.00015044 0.101958)
(-8.7332e-05 0.00015043 0.101958)
(8.40161e-05 0.000145955 0.102326)
(-8.39927e-05 0.000145947 0.102326)
(-0.000195102 0.000194997 0.101965)
(-8.11945e-05 8.11537e-05 0.102366)
(0.000150393 8.73615e-05 0.101958)
(0.000150412 -8.73283e-05 0.101958)
(0.000145903 8.40181e-05 0.102326)
(0.000145923 -8.39826e-05 0.102326)
(-0.000150421 -8.73489e-05 0.101958)
(-0.000145893 8.40152e-05 0.102326)
(-0.000145938 -8.40054e-05 0.102326)
(0.000195022 -0.000195137 0.101965)
(8.11523e-05 -8.12193e-05 0.102366)
(-8.73579e-05 -0.000150392 0.101958)
(8.40332e-05 -0.000145893 0.102326)
(-8.40146e-05 -0.000145897 0.102326)
(-8.12503e-05 -8.12681e-05 0.102366)
(0.000190153 0.000190056 0.102432)
(7.13742e-05 7.13223e-05 0.102812)
(8.29003e-05 0.000144372 0.102446)
(-8.28795e-05 0.000144369 0.102446)
(7.98373e-05 0.000139813 0.102798)
(-7.98128e-05 0.000139813 0.102798)
(-0.000190137 0.000190042 0.102432)
(-7.13539e-05 7.13245e-05 0.102812)
(0.000144322 8.29114e-05 0.102446)
(0.000144341 -8.28673e-05 0.102447)
(0.000139757 7.98425e-05 0.102798)
(0.000139778 -7.97961e-05 0.102798)
(-0.000144358 -8.28961e-05 0.102446)
(-0.000139749 7.98421e-05 0.102798)
(-0.0001398 -7.98258e-05 0.102798)
(0.00019005 -0.000190166 0.102432)
(7.13092e-05 -7.13818e-05 0.102812)
(-8.29022e-05 -0.000144314 0.102446)
(7.98635e-05 -0.00013975 0.102798)
(-7.98389e-05 -0.000139749 0.102798)
(-7.14253e-05 -7.14432e-05 0.102812)
(0.000184943 0.000184849 0.102871)
(6.24716e-05 6.24255e-05 0.103229)
(7.88991e-05 0.000138362 0.102912)
(-7.88753e-05 0.000138365 0.102912)
(7.63682e-05 0.000134242 0.103246)
(-7.63244e-05 0.000134232 0.103246)
(-0.000184927 0.000184837 0.102871)
(-6.24498e-05 6.24139e-05 0.103229)
(0.000138308 7.89178e-05 0.102912)
(0.000138327 -7.88585e-05 0.102912)
(0.000134187 7.63727e-05 0.103246)
(0.000134204 -7.63125e-05 0.103246)
(-0.000138351 -7.88996e-05 0.102912)
(-0.000134177 7.63633e-05 0.103246)
(-0.000134234 -7.63561e-05 0.103246)
(0.000184834 -0.00018496 0.102871)
(6.24113e-05 -6.24837e-05 0.103229)
(-7.89088e-05 -0.000138298 0.102912)
(7.6403e-05 -0.000134184 0.103246)
(-7.63723e-05 -0.000134179 0.103246)
(-6.25437e-05 -6.2565e-05 0.103229)
(0.000180471 0.000180354 0.103281)
(5.48684e-05 5.48922e-05 0.10362)
(7.55993e-05 0.000132966 0.103354)
(-7.55597e-05 0.000132959 0.103354)
(7.3762e-05 0.000129542 0.103671)
(-7.37343e-05 0.000129535 0.103671)
(-0.000180449 0.000180314 0.103281)
(-5.48665e-05 5.4922e-05 0.10362)
(0.000132917 7.56272e-05 0.103354)
(0.000132931 -7.55499e-05 0.103354)
(0.00012947 7.37144e-05 0.103671)
(0.0001295 -7.37183e-05 0.103671)
(-0.00013296 -7.56097e-05 0.103354)
(-0.000129461 7.36969e-05 0.103671)
(-0.000129495 -7.3674e-05 0.103671)
(0.000180324 -0.000180501 0.103281)
(5.48949e-05 -5.48571e-05 0.10362)
(-7.56176e-05 -0.000132905 0.103354)
(7.37226e-05 -0.00012946 0.103671)
(-7.367e-05 -0.000129435 0.103671)
(-5.48486e-05 -5.48551e-05 0.10362)
(0.000177179 0.000177129 0.103664)
(4.88664e-05 4.88783e-05 0.103987)
(7.32862e-05 0.000128506 0.103774)
(-7.32621e-05 0.000128503 0.103774)
(7.2003e-05 0.000125664 0.104076)
(-7.19831e-05 0.000125669 0.104076)
(-0.000177175 0.000177134 0.103664)
(-4.88821e-05 4.89285e-05 0.103987)
(0.000128434 7.32081e-05 0.103774)
(0.000128469 -7.32445e-05 0.103774)
(0.000125599 7.19173e-05 0.104076)
(0.000125638 -7.19774e-05 0.104076)
(-0.000128457 -7.31711e-05 0.103774)
(-0.000125592 7.18987e-05 0.104076)
(-0.000125637 -7.19178e-05 0.104076)
(0.000177118 -0.0001772 0.103664)
(4.88698e-05 -4.88221e-05 0.103987)
(-7.31405e-05 -0.00012839 0.103774)
(7.18851e-05 -0.000125579 0.104076)
(-7.18586e-05 -0.000125564 0.104076)
(-4.88165e-05 -4.88067e-05 0.103987)
(0.000175423 0.00017535 0.104023)
(4.345e-05 4.34439e-05 0.104332)
(7.161e-05 0.000124784 0.104175)
(-7.15888e-05 0.00012479 0.104175)
(7.05402e-05 0.000122328 0.104463)
(-7.05157e-05 0.000122335 0.104463)
(-0.000175432 0.00017537 0.104023)
(-4.3468e-05 4.35033e-05 0.104332)
(0.00012472 7.15291e-05 0.104175)
(0.000124761 -7.15853e-05 0.104175)
(0.00012226 7.04644e-05 0.104464)
(0.000122309 -7.05137e-05 0.104463)
(-0.000124762 -7.15299e-05 0.104175)
(-0.000122254 7.04373e-05 0.104464)
(-0.000122311 -7.04647e-05 0.104463)
(0.000175332 -0.00017541 0.104023)
(4.34439e-05 -4.34248e-05 0.104332)
(-7.14707e-05 -0.000124687 0.104175)
(7.04284e-05 -0.000122241 0.104464)
(-7.04046e-05 -0.000122232 0.104464)
(-4.34197e-05 -4.34241e-05 0.104332)
(0.000174266 0.000174181 0.104359)
(3.85041e-05 3.8491e-05 0.104656)
(7.02236e-05 0.000121585 0.104558)
(-7.01952e-05 0.000121588 0.104558)
(6.93184e-05 0.000119447 0.104834)
(-6.92776e-05 0.00011944 0.104834)
(-0.000174278 0.000174206 0.104359)
(-3.85074e-05 3.85426e-05 0.104656)
(0.000121514 7.01525e-05 0.104558)
(0.000121563 -7.01949e-05 0.104558)
(0.000119367 6.92521e-05 0.104834)
(0.000119417 -6.92783e-05 0.104834)
(-0.000121565 -7.01472e-05 0.104558)
(-0.000119355 6.92029e-05 0.104834)
(-0.000119423 -6.92344e-05 0.104834)
(0.00017417 -0.000174266 0.104359)
(3.84848e-05 -3.84892e-05 0.104656)
(-7.00885e-05 -0.000121485 0.104558)
(6.92051e-05 -0.000119347 0.104834)
(-6.91804e-05 -0.00011934 0.104834)
(-3.84839e-05 -3.85029e-05 0.104656)
(0.000173482 0.000173396 0.104674)
(3.39933e-05 3.39498e-05 0.10496)
(6.9013e-05 0.000118754 0.104925)
(-6.89714e-05 0.000118743 0.104925)
(6.82046e-05 0.000116918 0.10519)
(-6.81762e-05 0.000116912 0.10519)
(-0.00017348 0.00017341 0.104674)
(-3.40074e-05 3.40282e-05 0.10496)
(0.000118675 6.8951e-05 0.104925)
(0.000118724 -6.89736e-05 0.104925)
(0.000116849 6.81553e-05 0.10519)
(0.000116903 -6.8174e-05 0.10519)
(-0.000118732 -6.89295e-05 0.104925)
(-0.000116838 6.80963e-05 0.10519)
(-0.000116912 -6.81316e-05 0.10519)
(0.000173381 -0.000173491 0.104674)
(3.39633e-05 -3.39919e-05 0.10496)
(-6.88712e-05 -0.000118647 0.104925)
(6.81107e-05 -0.000116829 0.10519)
(-6.80758e-05 -0.000116824 0.10519)
(-3.39781e-05 -3.40172e-05 0.10496)
(0.000172807 0.000172696 0.104968)
(2.9875e-05 2.97945e-05 0.105244)
(6.79008e-05 0.000116264 0.105277)
(-6.78677e-05 0.000116253 0.105277)
(6.69751e-05 0.000114443 0.105532)
(-6.69207e-05 0.000114435 0.105532)
(-0.000172813 0.000172734 0.104968)
(-2.9906e-05 2.98984e-05 0.105244)
(0.000116189 6.78258e-05 0.105277)
(0.000116244 -6.78707e-05 0.105277)
(0.000114371 6.69166e-05 0.105532)
(0.000114425 -6.69266e-05 0.105532)
(-0.000116255 -6.78229e-05 0.105277)
(-0.000114373 6.68575e-05 0.105532)
(-0.000114439 -6.68794e-05 0.105532)
(0.000172702 -0.000172828 0.104968)
(2.98146e-05 -2.9896e-05 0.105244)
(-6.77551e-05 -0.00011617 0.105277)
(6.68692e-05 -0.000114356 0.105532)
(-6.6837e-05 -0.000114357 0.105532)
(-2.98525e-05 -2.99315e-05 0.105244)
(0.000171911 0.000171756 0.105242)
(2.59687e-05 2.59685e-05 0.105508)
(6.66826e-05 0.000113907 0.105615)
(-6.66305e-05 0.000113883 0.105615)
(6.54814e-05 0.000111742 0.105859)
(-6.54764e-05 0.000111706 0.105859)
(-0.000171963 0.000171826 0.105242)
(-2.59084e-05 2.60516e-05 0.105508)
(0.000113823 6.66453e-05 0.105615)
(0.00011387 -6.66323e-05 0.105615)
(0.000111635 6.54333e-05 0.105859)
(0.0001117 -6.54792e-05 0.105859)
(-0.000113896 -6.65891e-05 0.105615)
(-0.000111638 6.53877e-05 0.105859)
(-0.00011173 -6.54362e-05 0.105859)
(0.000171775 -0.000171984 0.105242)
(2.59884e-05 -2.58956e-05 0.105508)
(-6.65537e-05 -0.000113811 0.105615)
(6.54045e-05 -0.000111603 0.105859)
(-6.53604e-05 -0.000111616 0.105859)
(-2.60067e-05 -2.59422e-05 0.105508)
(0.000170276 0.000170199 0.105494)
(2.11978e-05 2.12568e-05 0.105748)
(6.50507e-05 0.000110925 0.105938)
(-6.50502e-05 0.000110897 0.105938)
(6.3655e-05 0.000108055 0.106169)
(-6.36624e-05 0.00010804 0.106169)
(-0.000170235 0.000170245 0.105494)
(-2.11228e-05 2.12813e-05 0.105748)
(0.00011083 6.49822e-05 0.105938)
(0.000110904 -6.50449e-05 0.105938)
(0.00010796 6.35714e-05 0.10617)
(0.000108041 -6.36531e-05 0.106169)
(-0.00011091 -6.50106e-05 0.105938)
(-0.000107956 6.35377e-05 0.10617)
(-0.000108043 -6.36205e-05 0.106169)
(0.000170197 -0.000170239 0.105494)
(2.13002e-05 -2.11608e-05 0.105748)
(-6.49198e-05 -0.000110802 0.105938)
(6.35117e-05 -0.000107939 0.10617)
(-6.35096e-05 -0.000107932 0.10617)
(-2.12209e-05 -2.11529e-05 0.105748)
(0.000166187 0.00016616 0.105722)
(1.33871e-05 1.34728e-05 0.105958)
(6.28422e-05 0.000106499 0.106244)
(-6.2861e-05 0.000106513 0.106244)
(5.93001e-05 0.000100341 0.106457)
(-5.93423e-05 0.000100374 0.106457)
(-0.000166126 0.000166154 0.105722)
(-1.33547e-05 1.34481e-05 0.105958)
(0.000106453 6.27705e-05 0.106244)
(0.000106522 -6.28437e-05 0.106244)
(0.000100272 5.92288e-05 0.106458)
(0.000100352 -5.93148e-05 0.106457)
(-0.000106448 -6.28123e-05 0.106244)
(-0.000100197 5.92025e-05 0.106458)
(-0.000100306 -5.92788e-05 0.106457)
(0.000166189 -0.000166192 0.105722)
(1.3477e-05 -1.33801e-05 0.105957)
(-6.27023e-05 -0.000106344 0.106244)
(5.91623e-05 -0.000100251 0.106458)
(-5.9174e-05 -0.000100178 0.106458)
(-1.34018e-05 -1.33358e-05 0.105957)
(0.000156657 0.000156669 0.105919)
(-6.48802e-06 -6.39933e-06 0.106112)
(5.74911e-05 9.69706e-05 0.106524)
(-5.75379e-05 9.69918e-05 0.106523)
(4.71841e-05 8.03921e-05 0.106697)
(-4.72118e-05 8.03998e-05 0.106697)
(-0.000156644 0.000156624 0.105919)
(6.5074e-06 -6.4517e-06 0.106112)
(9.6906e-05 5.7426e-05 0.106524)
(9.69788e-05 -5.75081e-05 0.106523)
(8.03285e-05 4.71479e-05 0.106698)
(8.03854e-05 -4.71919e-05 0.106697)
(-9.6951e-05 -5.74711e-05 0.106524)
(-8.03317e-05 4.71083e-05 0.106698)
(-8.03806e-05 -4.71709e-05 0.106697)
(0.000156663 -0.000156699 0.105919)
(-6.4186e-06 6.48298e-06 0.106112)
(-5.73684e-05 -9.68334e-05 0.106524)
(4.7066e-05 -8.02975e-05 0.106698)
(-4.70819e-05 -8.02829e-05 0.106698)
(6.4674e-06 6.51108e-06 0.106112)
(0.000133056 0.000133074 0.106058)
(-3.49092e-05 -3.48639e-05 0.10619)
(4.26359e-05 7.29999e-05 0.106745)
(-4.26681e-05 7.30019e-05 0.106745)
(2.9546e-05 5.01684e-05 0.10685)
(-2.95858e-05 5.01826e-05 0.10685)
(-0.00013305 0.000133014 0.106058)
(3.4894e-05 -3.48751e-05 0.10619)
(7.29236e-05 4.26013e-05 0.106745)
(7.29912e-05 -4.26542e-05 0.106745)
(5.0108e-05 2.94893e-05 0.10685)
(5.01948e-05 -2.957e-05 0.10685)
(-7.29714e-05 -4.26083e-05 0.106745)
(-5.01381e-05 2.94991e-05 0.10685)
(-5.01674e-05 -2.95264e-05 0.10685)
(0.000133057 -0.000133082 0.106058)
(-3.48161e-05 3.49444e-05 0.10619)
(-4.25444e-05 -7.28717e-05 0.106745)
(2.94843e-05 -5.01006e-05 0.10685)
(-2.94726e-05 -5.0086e-05 0.10685)
(3.48615e-05 3.49352e-05 0.10619)
(0.000103762 0.000103741 0.106122)
(-5.36798e-05 -5.36627e-05 0.106208)
(2.59747e-05 4.37569e-05 0.106873)
(-2.59949e-05 4.377e-05 0.106873)
(1.80154e-05 2.94355e-05 0.106918)
(-1.79876e-05 2.94379e-05 0.106918)
(-0.000103772 0.000103716 0.106122)
(5.37712e-05 -5.36851e-05 0.106208)
(4.37118e-05 2.59159e-05 0.106874)
(4.37703e-05 -2.59759e-05 0.106873)
(2.93951e-05 1.79475e-05 0.106919)
(2.94219e-05 -1.79631e-05 0.106918)
(-4.37432e-05 -2.59452e-05 0.106873)
(-2.93244e-05 1.79146e-05 0.106919)
(-2.94076e-05 -1.79883e-05 0.106918)
(0.000103779 -0.000103775 0.106122)
(-5.37074e-05 5.37544e-05 0.106208)
(-2.58829e-05 -4.36745e-05 0.106874)
(1.78967e-05 -2.93435e-05 0.106919)
(-1.79117e-05 -2.93653e-05 0.106919)
(5.37019e-05 5.3703e-05 0.106208)
(8.55993e-05 8.55578e-05 0.106132)
(-6.3598e-05 -6.35729e-05 0.106195)
(1.61321e-05 2.59581e-05 0.106927)
(-1.61037e-05 2.59562e-05 0.106927)
(1.12691e-05 1.67295e-05 0.106939)
(-1.12827e-05 1.6762e-05 0.106939)
(-8.55164e-05 8.5521e-05 0.106133)
(6.36125e-05 -6.35891e-05 0.106195)
(2.59186e-05 1.60647e-05 0.106927)
(2.59354e-05 -1.60836e-05 0.106926)
(1.66894e-05 1.12048e-05 0.106939)
(1.67504e-05 -1.12889e-05 0.106939)
(-2.59263e-05 -1.61054e-05 0.106927)
(-1.66889e-05 1.11844e-05 0.106939)
(-1.67585e-05 -1.12777e-05 0.106939)
(8.55129e-05 -8.55748e-05 0.106133)
(-6.35762e-05 6.35868e-05 0.106194)
(-1.60314e-05 -2.58779e-05 0.106927)
(1.11862e-05 -1.67158e-05 0.106939)
(-1.12006e-05 -1.67078e-05 0.106939)
(6.35542e-05 6.35618e-05 0.106194)
(7.56015e-05 7.55598e-05 0.106116)
(-6.99207e-05 -6.98513e-05 0.106176)
(9.74634e-06 1.3895e-05 0.10694)
(-9.75967e-06 1.39239e-05 0.10694)
(5.80265e-06 7.03025e-06 0.10694)
(-5.83092e-06 7.05665e-06 0.10694)
(-7.55827e-05 7.55282e-05 0.106116)
(6.9906e-05 -6.98865e-05 0.106177)
(1.38642e-05 9.67831e-06 0.106941)
(1.3918e-05 -9.77315e-06 0.10694)
(6.98423e-06 5.75044e-06 0.10694)
(7.02825e-06 -5.81682e-06 0.10694)
(-1.3932e-05 -9.75403e-06 0.10694)
(-6.99834e-06 5.73407e-06 0.10694)
(-7.05391e-06 -5.79851e-06 0.10694)
(7.55619e-05 -7.56639e-05 0.106116)
(-6.99041e-05 6.99012e-05 0.106176)
(-9.67521e-06 -1.38832e-05 0.10694)
(5.71621e-06 -7.00862e-06 0.10694)
(-5.72503e-06 -6.99411e-06 0.10694)
(6.98802e-05 6.9895e-05 0.106176)
(6.94763e-05 6.94729e-05 0.106099)
(-7.22124e-05 -7.21544e-05 0.106168)
(4.84452e-06 5.42909e-06 0.106939)
(-4.87031e-06 5.46471e-06 0.106939)
(3.12464e-06 2.60236e-06 0.106937)
(-3.14252e-06 2.6134e-06 0.106937)
(-6.94859e-05 6.94336e-05 0.106099)
(7.22132e-05 -7.21822e-05 0.106169)
(5.38618e-06 4.7945e-06 0.106939)
(5.43851e-06 -4.85929e-06 0.106939)
(2.553e-06 3.07969e-06 0.106937)
(2.60184e-06 -3.13485e-06 0.106937)
(-5.45989e-06 -4.84115e-06 0.106939)
(-2.54707e-06 3.07583e-06 0.106938)
(-2.60736e-06 -3.12354e-06 0.106937)
(6.94321e-05 -6.95314e-05 0.106099)
(-7.21719e-05 7.2213e-05 0.106168)
(-4.77272e-06 -5.39544e-06 0.106939)
(3.06263e-06 -2.54398e-06 0.106937)
(-3.06238e-06 -2.53367e-06 0.106937)
(7.21651e-05 7.21944e-05 0.106168)
(6.74887e-05 6.74683e-05 0.106092)
(-7.25703e-05 -7.25261e-05 0.106166)
(2.85812e-06 2.11545e-06 0.106937)
(-2.86935e-06 2.13241e-06 0.106937)
(2.4842e-06 1.52953e-06 0.106936)
(-2.4958e-06 1.54535e-06 0.106936)
(-6.7479e-05 6.74407e-05 0.106092)
(7.25764e-05 -7.25449e-05 0.106166)
(2.07142e-06 2.80669e-06 0.106937)
(2.12044e-06 -2.85869e-06 0.106936)
(1.47905e-06 2.43296e-06 0.106936)
(1.53689e-06 -2.48108e-06 0.106935)
(-2.12417e-06 -2.85176e-06 0.106936)
(-1.46561e-06 2.43331e-06 0.106936)
(-1.53201e-06 -2.48227e-06 0.106936)
(6.74653e-05 -6.75222e-05 0.106092)
(-7.25373e-05 7.25849e-05 0.106166)
(-2.7908e-06 -2.0505e-06 0.106937)
(2.42035e-06 -1.46096e-06 0.106936)
(-2.41767e-06 -1.46031e-06 0.106936)
(7.25315e-05 7.25535e-05 0.106166)
(6.71817e-05 6.71492e-05 0.10609)
(-7.26053e-05 -7.25628e-05 0.106165)
(2.44142e-06 1.4747e-06 0.106936)
(-2.44887e-06 1.4947e-06 0.106935)
(2.38685e-06 1.42299e-06 0.106935)
(-2.39886e-06 1.44275e-06 0.106935)
(-6.71682e-05 6.71303e-05 0.10609)
(7.26125e-05 -7.25759e-05 0.106165)
(1.43072e-06 2.37972e-06 0.106936)
(1.48762e-06 -2.43727e-06 0.106935)
(1.37353e-06 2.33345e-06 0.106936)
(1.43285e-06 -2.3879e-06 0.106935)
(-1.47988e-06 -2.43557e-06 0.106935)
(-1.36014e-06 2.3335e-06 0.106936)
(-1.42776e-06 -2.38685e-06 0.106935)
(6.71532e-05 -6.72068e-05 0.10609)
(-7.25675e-05 7.26121e-05 0.106165)
(-2.36968e-06 -1.40927e-06 0.106936)
(2.32593e-06 -1.36239e-06 0.106935)
(-2.31779e-06 -1.35926e-06 0.106935)
(7.25665e-05 7.2586e-05 0.106165)
(6.71441e-05 6.71116e-05 0.106089)
(-7.26089e-05 -7.25673e-05 0.106165)
(2.38891e-06 1.41244e-06 0.106935)
(-2.39268e-06 1.43074e-06 0.106935)
(2.36769e-06 1.39661e-06 0.106935)
(-2.38152e-06 1.41449e-06 0.106935)
(-6.71294e-05 6.70936e-05 0.106089)
(7.26149e-05 -7.25843e-05 0.106165)
(1.36733e-06 2.32199e-06 0.106936)
(1.42047e-06 -2.3802e-06 0.106935)
(1.34743e-06 2.31566e-06 0.106935)
(1.40697e-06 -2.3726e-06 0.106935)
(-1.41877e-06 -2.38257e-06 0.106935)
(-1.33781e-06 2.31189e-06 0.106936)
(-1.4011e-06 -2.36253e-06 0.106935)
(6.71158e-05 -6.71736e-05 0.106089)
(-7.25743e-05 7.26134e-05 0.106165)
(-2.31372e-06 -1.35256e-06 0.106935)
(2.30744e-06 -1.34536e-06 0.106935)
(-2.2928e-06 -1.33929e-06 0.106935)
(7.25736e-05 7.2592e-05 0.106164)
(6.71282e-05 6.70978e-05 0.106089)
(-7.26041e-05 -7.25622e-05 0.106165)
(2.37786e-06 1.39454e-06 0.106935)
(-2.38383e-06 1.4124e-06 0.106935)
(2.35991e-06 1.38893e-06 0.106935)
(-2.37636e-06 1.40903e-06 0.106935)
(-6.71178e-05 6.7077e-05 0.106089)
(7.26089e-05 -7.25765e-05 0.106165)
(1.34562e-06 2.30643e-06 0.106935)
(1.40114e-06 -2.37108e-06 0.106935)
(1.33905e-06 2.31285e-06 0.106935)
(1.39933e-06 -2.36173e-06 0.106935)
(-1.39729e-06 -2.35852e-06 0.106935)
(-1.32718e-06 2.30899e-06 0.106935)
(-1.38949e-06 -2.3473e-06 0.106935)
(6.71009e-05 -6.71638e-05 0.106089)
(-7.25738e-05 7.26157e-05 0.106164)
(-2.28966e-06 -1.33518e-06 0.106935)
(2.3008e-06 -1.33302e-06 0.106935)
(-2.28168e-06 -1.32395e-06 0.106935)
(7.25738e-05 7.25985e-05 0.106164)
(6.71231e-05 6.70959e-05 0.106089)
(-7.2601e-05 -7.25639e-05 0.106165)
(2.37204e-06 1.38689e-06 0.106935)
(-2.37212e-06 1.40354e-06 0.106935)
(2.35137e-06 1.38684e-06 0.106935)
(-2.3744e-06 1.4102e-06 0.106935)
(-6.71137e-05 6.70745e-05 0.106089)
(7.26058e-05 -7.25738e-05 0.106165)
(1.33414e-06 2.29458e-06 0.106935)
(1.39568e-06 -2.36001e-06 0.106935)
(1.33985e-06 2.3112e-06 0.106935)
(1.3913e-06 -2.34915e-06 0.106935)
(-1.38821e-06 -2.34781e-06 0.106935)
(-1.3264e-06 2.30342e-06 0.106935)
(-1.39166e-06 -2.35124e-06 0.106935)
(6.70936e-05 -6.7153e-05 0.106089)
(-7.25776e-05 7.26202e-05 0.106164)
(-2.28344e-06 -1.32353e-06 0.106935)
(2.28703e-06 -1.32348e-06 0.106935)
(-2.28828e-06 -1.32591e-06 0.106935)
(7.25604e-05 7.25863e-05 0.106164)
(6.71172e-05 6.70923e-05 0.106089)
(-7.25967e-05 -7.25672e-05 0.106164)
(2.37262e-06 1.3869e-06 0.106935)
(-2.37221e-06 1.40406e-06 0.106935)
(2.34357e-06 1.3848e-06 0.106935)
(-2.36601e-06 1.40809e-06 0.106935)
(-6.71138e-05 6.70737e-05 0.106089)
(7.261e-05 -7.2577e-05 0.106165)
(1.33117e-06 2.28613e-06 0.106935)
(1.39129e-06 -2.35112e-06 0.106935)
(1.34426e-06 2.30993e-06 0.106935)
(1.39742e-06 -2.35544e-06 0.106935)
(-1.39053e-06 -2.35231e-06 0.106935)
(-1.32343e-06 2.29541e-06 0.106935)
(-1.39018e-06 -2.34897e-06 0.106935)
(6.70829e-05 -6.71423e-05 0.106089)
(-7.25623e-05 7.26056e-05 0.106164)
(-2.28902e-06 -1.32611e-06 0.106935)
(2.29356e-06 -1.32932e-06 0.106935)
(-2.28202e-06 -1.32828e-06 0.106935)
(7.256e-05 7.25833e-05 0.106164)
(6.71084e-05 6.70877e-05 0.106089)
(-7.25832e-05 -7.25621e-05 0.106164)
(2.38083e-06 1.39297e-06 0.106935)
(-2.36597e-06 1.40505e-06 0.106935)
(2.33579e-06 1.38265e-06 0.106935)
(-2.37148e-06 1.41352e-06 0.106935)
(-6.71014e-05 6.70621e-05 0.106089)
(7.25956e-05 -7.25607e-05 0.106165)
(1.33251e-06 2.27832e-06 0.106935)
(1.39776e-06 -2.35768e-06 0.106935)
(1.34786e-06 2.31771e-06 0.106935)
(1.39795e-06 -2.35432e-06 0.106935)
(-1.39027e-06 -2.34985e-06 0.106935)
(-1.32717e-06 2.30202e-06 0.106935)
(-1.38503e-06 -2.34067e-06 0.106935)
(6.70896e-05 -6.7148e-05 0.106089)
(-7.25545e-05 7.25981e-05 0.106164)
(-2.28328e-06 -1.32906e-06 0.106935)
(2.29392e-06 -1.3302e-06 0.106935)
(-2.27544e-06 -1.32482e-06 0.106935)
(7.25576e-05 7.25813e-05 0.106164)
(6.70981e-05 6.70875e-05 0.106089)
(-7.25599e-05 -7.25481e-05 0.106164)
(2.38759e-06 1.39598e-06 0.106935)
(-2.37136e-06 1.40767e-06 0.106935)
(2.32925e-06 1.3818e-06 0.106935)
(-2.37715e-06 1.41881e-06 0.106935)
(-6.71051e-05 6.70654e-05 0.106089)
(7.25754e-05 -7.25425e-05 0.106165)
(1.32548e-06 2.26764e-06 0.106935)
(1.39614e-06 -2.35455e-06 0.106935)
(1.35835e-06 2.33505e-06 0.106935)
(1.3992e-06 -2.35484e-06 0.106935)
(-1.39102e-06 -2.34739e-06 0.106935)
(-1.33471e-06 2.30447e-06 0.106935)
(-1.39151e-06 -2.34869e-06 0.106935)
(6.70802e-05 -6.71388e-05 0.106089)
(-7.25389e-05 7.25807e-05 0.106164)
(-2.28285e-06 -1.33079e-06 0.106935)
(2.29136e-06 -1.33453e-06 0.106935)
(-2.28441e-06 -1.33063e-06 0.106935)
(7.25256e-05 7.25519e-05 0.106164)
(6.70842e-05 6.70894e-05 0.106089)
(2.40093e-06 1.40231e-06 0.106935)
(-2.3749e-06 1.41045e-06 0.106935)
(-6.71021e-05 6.7058e-05 0.106089)
(1.31672e-06 2.25954e-06 0.106935)
(1.39805e-06 -2.35673e-06 0.106935)
(-1.39274e-06 -2.3476e-06 0.106935)
(6.70635e-05 -6.71236e-05 0.106089)
(-2.28498e-06 -1.33197e-06 0.106935)
(-2.96805e-07 -2.99857e-07 0.0999988)
(1.64977e-05 1.64938e-05 0.100003)
(-4.69529e-07 1.37341e-05 0.1)
(1.37421e-05 -4.72412e-07 0.1)
(-4.5809e-05 5.50074e-06 0.100008)
(-1.49576e-05 1.49485e-05 0.1)
(-0.00012711 6.04985e-05 0.100059)
(-1.28366e-05 -8.33741e-07 0.0999958)
(5.49677e-06 -4.57914e-05 0.100008)
(1.49506e-05 -1.49579e-05 0.1)
(-8.31245e-07 -1.28356e-05 0.0999958)
(6.05059e-05 -0.000127042 0.100059)
(-1.79117e-05 -1.79137e-05 0.100003)
(-0.000135132 -8.15617e-05 0.100056)
(-8.15758e-05 -0.000135116 0.100056)
(-2.41505e-05 0.000137496 0.100719)
(0.000205059 0.000298734 0.0993432)
(2.3326e-05 0.000303505 0.100516)
(-8.85337e-05 0.000210326 0.099162)
(-0.000332062 0.000893117 0.097656)
(-8.39666e-05 0.000336247 0.0957619)
(0.000137323 -2.42508e-05 0.100719)
(0.000299325 0.000203814 0.0993439)
(0.000304334 2.32364e-05 0.100517)
(0.000210531 -8.82562e-05 0.0991624)
(-0.00010599 0.000105939 0.100294)
(0.000105979 -0.000105993 0.100294)
(-0.000105973 -0.000105993 0.100294)
(9.15971e-05 9.15107e-05 0.100744)
(-9.15605e-05 9.15249e-05 0.100744)
(9.15621e-05 -9.15931e-05 0.100744)
(-9.1543e-05 -9.16073e-05 0.100744)
(-0.000278671 7.25459e-07 0.100753)
(-0.00040216 0.000206427 0.100513)
(-0.000177856 3.70446e-05 0.10033)
(-0.000151395 9.49554e-05 0.100554)
(-0.000345805 1.97278e-05 0.100469)
(-0.000179918 0.000173266 0.100755)
(-0.00015004 3.39306e-05 0.100494)
(0.000892079 -0.000330358 0.0976544)
(0.000336432 -8.37318e-05 0.095763)
(6.62823e-07 -0.000278565 0.100752)
(3.70891e-05 -0.000177859 0.10033)
(0.000206524 -0.000402097 0.100513)
(9.48994e-05 -0.000151393 0.100554)
(1.97888e-05 -0.000345705 0.100469)
(3.39826e-05 -0.000149999 0.100495)
(0.000173309 -0.000179887 0.100755)
(-0.000390697 -0.000137908 0.100363)
(-0.000138015 -0.000390908 0.100363)
(-0.000111361 -0.000111471 0.100654)
(2.44902e-05 -9.68501e-05 0.100588)
(-9.70596e-05 2.45772e-05 0.100588)
(-1.25789e-05 0.000188607 0.100862)
(-4.76124e-05 0.000251963 0.0983064)
(-1.4014e-05 0.000192454 0.100773)
(-4.18597e-05 0.000245982 0.0979375)
(-0.000142266 0.000340745 0.0926083)
(-0.000124813 0.0002923 0.0909886)
(0.000188541 -1.27046e-05 0.100861)
(0.000252225 -4.74956e-05 0.0983068)
(0.000192466 -1.41118e-05 0.100773)
(0.000246143 -4.1781e-05 0.0979377)