/*--------------------------------*- C++ -*----------------------------------*\
| =========                 |                                                 |
| \\      /  F ield         | OpenFOAM: The Open Source CFD Toolbox           |
|  \\    /   O peration     | Version:  v1912                                 |
|   \\  /    A nd           | Website:  www.openfoam.com                      |
|    \\/     M anipulation  |                                                 |
\*---------------------------------------------------------------------------*/
FoamFile
{
    version     2.0;
    format      ascii;
    class       volScalarField;
    location    "40";
    object      epsilon;
}
// * * * * * * * * * * * * * * * * * * * * * * * * * * * * * * * * * * * * * //

dimensions      [0 2 -3 0 0 0 0];


internalField   nonuniform List<scalar> 
57566
(
2.05858e-05
5.30163e-07
2.62886e-07
2.4311e-07
1.49828e-06
2.98133e-07
3.40497e-06
3.40606e-06
2.05839e-05
2.05871e-05
2.98422e-07
3.40544e-06
3.40648e-06
1.86193e-06
8.81299e-06
1.86199e-06
8.81469e-06
5.30308e-07
2.62906e-07
1.49921e-06
2.43124e-07
5.30316e-07
2.62921e-07
1.49931e-06
2.43126e-07
2.05866e-05
2.98408e-07
3.40622e-06
3.40537e-06
2.05836e-05
1.86136e-06
8.81408e-06
5.30162e-07
2.62923e-07
2.43123e-07
1.4986e-06
1.86192e-06
8.81524e-06
5.30359e-07
2.62892e-07
1.49934e-06
2.43124e-07
1.8619e-06
8.81435e-06
5.30385e-07
2.62923e-07
2.43123e-07
1.49957e-06
5.30144e-07
2.62908e-07
2.43118e-07
1.4983e-06
1.8612e-06
8.81432e-06
5.30334e-07
2.62874e-07
1.49917e-06
2.4311e-07
1.86186e-06
8.81424e-06
5.30367e-07
2.62908e-07
2.43118e-07
1.49923e-06
1.86188e-06
8.81457e-06
2.98155e-07
3.40558e-06
3.40472e-06
2.05867e-05
2.05852e-05
2.9846e-07
3.40633e-06
3.40536e-06
2.05857e-05
5.30168e-07
2.6289e-07
2.43118e-07
1.4985e-06
1.86132e-06
8.81443e-06
1.86127e-06
8.81517e-06
5.30386e-07
2.62886e-07
2.4311e-07
1.4992e-06
5.30396e-07
2.6289e-07
2.43118e-07
1.49943e-06
1.86188e-06
8.81467e-06
1.86186e-06
8.81542e-06
2.05868e-05
2.05873e-05
2.98439e-07
3.40559e-06
3.40667e-06
2.05859e-05
2.05864e-05
2.05862e-05
6.28751e-06
2.29241e-05
2.29249e-05
2.29236e-05
2.29244e-05
6.28746e-06
1.78292e-06
8.98923e-06
3.40581e-06
7.67719e-07
7.68062e-07
8.98973e-06
1.78188e-06
1.78458e-06
8.99335e-06
3.40688e-06
7.6799e-07
7.68323e-07
8.99384e-06
1.78358e-06
2.05834e-05
2.05868e-05
6.28707e-06
2.29232e-05
2.29246e-05
6.28766e-06
2.29234e-05
2.29242e-05
1.78169e-06
8.98918e-06
7.68032e-07
3.40475e-06
1.78277e-06
8.98885e-06
7.67717e-07
1.78343e-06
8.99405e-06
7.68368e-07
3.40584e-06
1.78473e-06
8.99326e-06
7.67981e-07
1.40262e-05
1.28041e-05
2.25579e-06
1.86127e-06
1.40268e-05
1.28034e-05
2.25495e-06
2.37062e-05
4.81518e-06
8.81244e-06
2.37052e-05
4.81421e-06
1.40269e-05
1.28044e-05
2.2559e-06
1.86133e-06
1.40277e-05
1.28037e-05
2.25513e-06
2.37072e-05
4.81798e-06
8.81417e-06
2.37071e-05
4.81711e-06
2.05862e-05
6.28721e-06
2.29239e-05
2.29235e-05
6.2876e-06
2.2924e-05
2.29235e-05
1.78354e-06
8.99324e-06
7.68373e-07
3.40562e-06
7.68022e-07
1.78474e-06
8.99274e-06
1.78152e-06
8.98961e-06
7.67988e-07
3.40465e-06
1.78268e-06
8.98908e-06
7.67641e-07
2.05832e-05
1.40273e-05
1.86188e-06
1.28047e-05
2.25513e-06
1.28054e-05
2.25616e-06
1.40267e-05
2.37066e-05
4.81511e-06
8.81461e-06
4.81656e-06
2.37066e-05
1.4027e-05
2.25575e-06
1.28054e-05
1.86136e-06
1.40278e-05
2.25496e-06
1.28048e-05
2.37053e-05
4.81632e-06
8.81472e-06
2.37052e-05
4.81547e-06
1.40249e-05
1.28046e-05
2.25587e-06
1.86142e-06
1.40262e-05
1.28039e-05
2.25532e-06
2.37045e-05
4.81614e-06
8.81382e-06
2.37041e-05
4.81538e-06
1.4028e-05
1.86183e-06
1.28039e-05
2.25505e-06
1.28048e-05
2.25599e-06
1.40274e-05
2.3708e-05
4.81549e-06
8.81483e-06
4.81675e-06
2.3708e-05
1.40267e-05
2.25579e-06
1.28048e-05
1.86124e-06
1.40274e-05
2.255e-06
1.28041e-05
2.37062e-05
4.81736e-06
8.8137e-06
2.37061e-05
4.81648e-06
1.40258e-05
1.28043e-05
2.25573e-06
1.8614e-06
1.40269e-05
1.28036e-05
2.25523e-06
2.37056e-05
4.81638e-06
8.81406e-06
2.37054e-05
4.81571e-06
6.28751e-06
2.29256e-05
2.29245e-05
2.29251e-05
2.2924e-05
6.2875e-06
1.78479e-06
8.99313e-06
3.40649e-06
7.68017e-07
8.99363e-06
7.68376e-07
1.78374e-06
1.78293e-06
8.98915e-06
3.40549e-06
7.67723e-07
7.68071e-07
8.98966e-06
1.78189e-06
2.0587e-05
2.05845e-05
6.28857e-06
2.29236e-05
2.29224e-05
6.28872e-06
2.2924e-05
2.29229e-05
1.78401e-06
8.99343e-06
7.68331e-07
3.40585e-06
7.68101e-07
1.78464e-06
8.99294e-06
1.78217e-06
8.98947e-06
7.68029e-07
3.40496e-06
1.7828e-06
8.98897e-06
7.67808e-07
2.05851e-05
1.4028e-05
1.86183e-06
2.25506e-06
1.28048e-05
2.256e-06
1.28056e-05
1.40274e-05
2.3708e-05
4.81546e-06
8.81493e-06
4.81673e-06
2.3708e-05
1.40276e-05
1.86176e-06
2.25502e-06
1.28049e-05
2.25595e-06
1.28057e-05
1.4027e-05
2.37058e-05
4.81637e-06
8.81568e-06
4.81759e-06
2.37057e-05
1.40258e-05
2.25574e-06
1.28047e-05
1.86139e-06
1.40269e-05
2.25524e-06
1.2804e-05
2.37056e-05
4.81635e-06
8.81415e-06
2.37054e-05
4.81568e-06
1.40254e-05
2.2557e-06
1.28049e-05
1.86137e-06
1.40265e-05
2.25519e-06
1.28041e-05
2.37033e-05
4.81723e-06
8.81491e-06
2.37032e-05
4.81659e-06
2.05871e-05
2.05877e-05
6.28826e-06
2.2922e-05
2.29228e-05
6.28856e-06
2.29224e-05
2.29231e-05
1.78213e-06
8.98955e-06
7.68027e-07
3.40517e-06
1.78277e-06
7.67808e-07
8.98905e-06
1.78383e-06
8.99366e-06
7.68293e-07
3.40626e-06
1.78445e-06
7.68078e-07
8.99317e-06
2.05853e-05
2.05858e-05
2.3259e-07
2.26544e-07
2.26544e-07
2.23654e-07
2.32587e-07
2.26544e-07
2.26542e-07
2.23652e-07
2.3257e-07
2.2653e-07
2.26531e-07
2.23642e-07
2.32591e-07
2.26546e-07
2.26549e-07
2.23653e-07
2.32589e-07
2.26543e-07
2.26544e-07
2.23653e-07
2.32587e-07
2.26543e-07
2.26541e-07
2.23651e-07
3.34739e-07
5.30345e-07
3.1885e-07
5.93599e-07
3.1904e-07
5.93834e-07
3.34454e-07
3.88147e-07
8.72105e-07
1.49907e-06
4.97942e-07
4.98284e-07
8.72812e-07
3.87796e-07
6.23472e-07
2.98416e-07
3.84822e-07
3.84851e-07
3.85015e-07
3.85046e-07
6.23184e-07
6.23201e-07
2.9814e-07
3.85022e-07
3.8505e-07
6.23497e-07
3.8483e-07
3.84851e-07
3.34428e-07
5.9373e-07
3.19027e-07
5.30128e-07
3.34715e-07
5.93498e-07
3.18839e-07
3.87772e-07
8.72572e-07
4.98273e-07
1.49836e-06
4.97938e-07
3.8812e-07
8.71898e-07
3.34442e-07
5.93774e-07
3.19028e-07
5.30138e-07
3.34726e-07
5.93546e-07
3.18841e-07
3.87828e-07
8.72911e-07
4.98346e-07
1.4985e-06
3.88175e-07
8.72236e-07
4.98006e-07
6.23164e-07
2.98125e-07
3.85044e-07
3.85004e-07
3.84849e-07
6.23456e-07
3.84808e-07
3.34733e-07
5.30344e-07
3.18864e-07
5.93559e-07
3.19053e-07
5.93791e-07
3.3445e-07
3.88159e-07
8.72049e-07
1.49947e-06
4.98029e-07
8.72742e-07
3.8781e-07
4.98373e-07
3.3445e-07
5.93783e-07
3.19057e-07
5.30176e-07
3.34736e-07
5.93548e-07
3.18867e-07
3.87801e-07
8.72742e-07
4.98335e-07
1.49848e-06
4.97986e-07
3.88149e-07
8.72058e-07
3.34448e-07
3.19075e-07
5.93837e-07
5.30207e-07
3.34736e-07
3.18887e-07
5.9361e-07
3.87829e-07
8.72571e-07
4.98404e-07
1.49872e-06
3.8819e-07
8.72138e-07
4.98064e-07
3.34726e-07
5.30325e-07
3.18851e-07
5.93569e-07
3.19039e-07
5.93803e-07
3.34444e-07
3.88147e-07
8.72113e-07
1.49911e-06
4.97952e-07
4.98291e-07
8.72825e-07
3.878e-07
3.34442e-07
5.93801e-07
3.19037e-07
5.30153e-07
3.34729e-07
5.93567e-07
3.18849e-07
3.87795e-07
8.72854e-07
4.98269e-07
1.4983e-06
3.88146e-07
4.97927e-07
8.7215e-07
3.34442e-07
3.19062e-07
5.9385e-07
5.30188e-07
3.3473e-07
3.18873e-07
5.9362e-07
3.87818e-07
8.72641e-07
4.98323e-07
1.49843e-06
3.88178e-07
8.72203e-07
4.97988e-07
6.23516e-07
2.98438e-07
3.84879e-07
3.84844e-07
3.85037e-07
3.85074e-07
6.23228e-07
6.23308e-07
2.98177e-07
3.85098e-07
3.8506e-07
3.84904e-07
6.23585e-07
3.84868e-07
3.34738e-07
5.30352e-07
3.18863e-07
5.93574e-07
3.19052e-07
5.9381e-07
3.34453e-07
3.88163e-07
8.72146e-07
1.49932e-06
4.98021e-07
4.98365e-07
8.7284e-07
3.87811e-07
3.34451e-07
3.19064e-07
5.93881e-07
5.30205e-07
3.34744e-07
3.18875e-07
5.93648e-07
3.87813e-07
8.72634e-07
4.98313e-07
1.4984e-06
3.88177e-07
4.97976e-07
8.72196e-07
3.34451e-07
3.19075e-07
5.93858e-07
5.30213e-07
3.34743e-07
3.18886e-07
5.93625e-07
3.87831e-07
8.72666e-07
4.98397e-07
1.49862e-06
3.88197e-07
8.72235e-07
4.98057e-07
6.23262e-07
2.98156e-07
3.85037e-07
3.85069e-07
6.23541e-07
3.84844e-07
3.84874e-07
2.05772e-05
2.05777e-05
2.98173e-07
3.40768e-06
3.40858e-06
1.86244e-06
8.8127e-06
1.86246e-06
5.30162e-07
2.62647e-07
1.49989e-06
2.42823e-07
5.30168e-07
2.42826e-07
1.86234e-06
8.81416e-06
5.30189e-07
2.6261e-07
1.50017e-06
2.42812e-07
1.86234e-06
8.81385e-06
5.30174e-07
2.62635e-07
2.42817e-07
1.50031e-06
2.05783e-05
2.98165e-07
3.40875e-06
3.40778e-06
2.05779e-05
5.30214e-07
2.626e-07
2.42809e-07
1.49999e-06
5.30178e-07
2.42822e-07
1.86256e-06
8.81398e-06
1.86233e-06
2.05776e-05
2.05782e-05
6.29716e-06
2.29174e-05
2.29182e-05
6.29747e-06
2.2918e-05
2.29188e-05
1.7836e-06
8.98782e-06
7.6828e-07
3.40738e-06
1.78384e-06
8.98778e-06
7.67963e-07
1.78583e-06
8.99132e-06
7.68799e-07
3.40827e-06
1.78608e-06
8.99131e-06
7.68457e-07
1.40199e-05
1.27989e-05
2.25689e-06
1.86173e-06
1.40201e-05
1.27989e-05
2.25659e-06
2.36985e-05
4.82087e-06
8.81234e-06
2.36982e-05
4.82006e-06
1.40209e-05
1.27993e-05
2.25687e-06
1.86176e-06
1.4021e-05
1.27992e-05
2.25665e-06
1.40208e-05
2.25683e-06
1.28e-05
1.8618e-06
1.4021e-05
2.25661e-06
1.28e-05
2.36977e-05
4.82184e-06
8.81394e-06
2.36973e-05
4.82117e-06
1.40204e-05
1.27998e-05
2.25716e-06
1.86178e-06
1.40206e-05
1.27998e-05
2.25685e-06
2.36995e-05
4.82182e-06
8.81358e-06
2.36992e-05
4.82098e-06
2.05785e-05
6.29747e-06
2.29186e-05
2.29175e-05
6.29777e-06
2.29192e-05
2.29181e-05
1.78543e-06
8.99152e-06
7.68659e-07
3.40827e-06
7.68325e-07
1.78568e-06
8.99146e-06
1.78355e-06
8.98751e-06
7.68367e-07
3.40748e-06
1.78382e-06
8.98749e-06
7.68043e-07
2.05784e-05
1.40201e-05
2.25718e-06
1.27994e-05
1.86183e-06
1.40203e-05
2.25686e-06
1.27994e-05
2.37004e-05
4.82186e-06
8.81373e-06
2.36999e-05
4.82123e-06
1.40198e-05
2.25692e-06
1.28e-05
1.8618e-06
1.40199e-05
2.2566e-06
1.28e-05
2.32268e-07
2.26218e-07
2.26217e-07
2.23316e-07
2.26236e-07
2.23328e-07
2.32289e-07
2.26234e-07
2.26236e-07
2.23326e-07
2.26235e-07
2.23327e-07
6.23449e-07
2.97896e-07
3.84828e-07
3.84944e-07
6.23763e-07
3.84652e-07
3.84764e-07
3.34187e-07
5.9379e-07
3.18754e-07
5.29985e-07
3.34477e-07
5.9353e-07
3.1857e-07
3.8762e-07
8.73068e-07
4.98166e-07
1.49887e-06
4.97833e-07
3.87989e-07
8.72483e-07
3.34206e-07
5.93847e-07
3.18755e-07
5.29991e-07
3.34492e-07
5.93575e-07
3.18571e-07
3.342e-07
5.93825e-07
3.1876e-07
5.30014e-07
3.34494e-07
5.93559e-07
3.18578e-07
3.87643e-07
8.7322e-07
4.98253e-07
1.49914e-06
4.97912e-07
3.88019e-07
8.72637e-07
3.34205e-07
3.18759e-07
5.9383e-07
5.30003e-07
3.34494e-07
3.18579e-07
5.93569e-07
3.87656e-07
8.7322e-07
4.98259e-07
1.49925e-06
3.88031e-07
8.72632e-07
4.97918e-07
6.2339e-07
2.97888e-07
3.84875e-07
3.84843e-07
3.84697e-07
6.23696e-07
3.84669e-07
3.34212e-07
3.18761e-07
5.93881e-07
5.30033e-07
3.34504e-07
3.18579e-07
5.93612e-07
3.87644e-07
8.73233e-07
4.98196e-07
1.49897e-06
3.88024e-07
4.97856e-07
8.7265e-07
3.34209e-07
3.18756e-07
5.93837e-07
5.30004e-07
3.34496e-07
3.18576e-07
5.93561e-07
2.3226e-07
2.62579e-07
2.62599e-07
2.98155e-07
2.32259e-07
2.62581e-07
2.62591e-07
2.98152e-07
2.62618e-07
2.62617e-07
2.62638e-07
2.6262e-07
2.98154e-07
2.9787e-07
2.62607e-07
2.62581e-07
2.62611e-07
2.62586e-07
2.62593e-07
2.62591e-07
2.97873e-07
2.98172e-07
2.6265e-07
2.6263e-07
2.98169e-07
2.62595e-07
2.62619e-07
2.62621e-07
2.98168e-07
2.62601e-07
1.86191e-06
8.8128e-06
1.86248e-06
8.81287e-06
2.05783e-05
2.05789e-05
2.32268e-07
2.32272e-07
2.32267e-07
2.3226e-07
2.3227e-07
2.32275e-07
2.3227e-07
5.29987e-07
1.49997e-06
2.428e-07
2.62591e-07
1.49899e-06
2.42812e-07
5.30176e-07
5.30033e-07
2.42802e-07
1.50001e-06
2.6261e-07
2.42813e-07
5.30225e-07
1.49908e-06
3.40762e-06
3.40869e-06
2.97872e-07
3.4069e-06
3.40798e-06
1.86179e-06
8.8129e-06
1.86244e-06
8.81237e-06
2.05782e-05
2.05788e-05
1.86174e-06
8.814e-06
8.81382e-06
1.86235e-06
2.32281e-07
2.32287e-07
2.32281e-07
5.29987e-07
1.49997e-06
2.42799e-07
2.62588e-07
5.30173e-07
1.49898e-06
2.42806e-07
2.05778e-05
2.05788e-05
5.30022e-07
2.42801e-07
1.50002e-06
2.62597e-07
5.30218e-07
2.42806e-07
1.49905e-06
3.40762e-06
3.4087e-06
2.97873e-07
3.40721e-06
3.40829e-06
1.86189e-06
8.81407e-06
8.81374e-06
1.86254e-06
5.29982e-07
1.49993e-06
2.42807e-07
2.62647e-07
2.42819e-07
5.30161e-07
1.49922e-06
5.29982e-07
1.50015e-06
2.42808e-07
2.62628e-07
1.4992e-06
2.42819e-07
5.30169e-07
1.86244e-06
8.81257e-06
1.86179e-06
8.81326e-06
1.86234e-06
8.8137e-06
8.81412e-06
1.86176e-06
5.30192e-07
2.62642e-07
1.49907e-06
2.42811e-07
2.42813e-07
5.29986e-07
1.50003e-06
5.30192e-07
2.62623e-07
1.4992e-06
2.42811e-07
1.50003e-06
2.42813e-07
5.29988e-07
3.40876e-06
3.40765e-06
2.97869e-07
3.40801e-06
3.40683e-06
2.05753e-05
2.05762e-05
2.05787e-05
2.05789e-05
2.98169e-07
3.408e-06
3.40682e-06
3.40835e-06
3.40725e-06
2.0576e-05
2.05762e-05
1.86185e-06
8.81353e-06
8.81317e-06
1.86251e-06
5.29976e-07
2.42804e-07
1.49996e-06
2.62618e-07
2.42815e-07
1.499e-06
5.30163e-07
1.86184e-06
8.81407e-06
8.81373e-06
1.8625e-06
5.30193e-07
2.62589e-07
1.49899e-06
2.428e-07
1.49986e-06
2.42809e-07
5.29987e-07
1.86238e-06
8.81314e-06
8.81359e-06
1.86185e-06
5.30184e-07
2.62613e-07
2.42808e-07
1.499e-06
2.42809e-07
1.49984e-06
5.29982e-07
1.86238e-06
8.81369e-06
8.81412e-06
1.86184e-06
5.29988e-07
2.42803e-07
1.50013e-06
2.62597e-07
2.42814e-07
1.49918e-06
5.30174e-07
1.86192e-06
8.81421e-06
1.86258e-06
8.81374e-06
1.86173e-06
8.81466e-06
8.81434e-06
1.86234e-06
5.30237e-07
2.6261e-07
2.42802e-07
1.49909e-06
2.42811e-07
5.30027e-07
1.49996e-06
5.30194e-07
2.62593e-07
2.42807e-07
1.49918e-06
2.42808e-07
1.50002e-06
5.29994e-07
1.86245e-06
8.81363e-06
1.8619e-06
8.81414e-06
1.86221e-06
8.81431e-06
8.81473e-06
1.86173e-06
2.05782e-05
2.05789e-05
2.05786e-05
2.05793e-05
2.98169e-07
3.40692e-06
3.408e-06
3.40725e-06
3.40831e-06
2.05787e-05
2.05789e-05
2.05792e-05
2.05793e-05
2.05777e-05
2.05777e-05
2.05771e-05
2.05781e-05
3.40802e-06
3.40865e-06
2.97893e-07
3.40702e-06
3.40791e-06
1.86181e-06
8.8141e-06
1.86231e-06
8.81368e-06
5.29975e-07
1.49987e-06
2.42821e-07
2.62646e-07
5.30186e-07
1.49896e-06
2.42821e-07
5.29979e-07
1.50003e-06
2.42822e-07
2.62631e-07
5.30188e-07
1.49918e-06
2.42821e-07
3.40834e-06
3.40724e-06
2.97873e-07
3.40828e-06
3.40702e-06
2.0576e-05
2.05754e-05
5.29995e-07
1.50019e-06
2.42805e-07
2.62607e-07
1.49923e-06
2.42809e-07
5.3018e-07
1.86175e-06
8.81386e-06
8.81351e-06
1.86236e-06
5.29987e-07
2.42809e-07
1.5003e-06
2.62632e-07
2.42813e-07
1.49932e-06
5.30174e-07
1.86186e-06
8.81356e-06
1.86239e-06
8.81311e-06
5.29988e-07
2.42818e-07
1.49983e-06
2.62622e-07
5.30189e-07
2.42819e-07
1.499e-06
1.86185e-06
8.81408e-06
1.86238e-06
8.81367e-06
3.40876e-06
3.40785e-06
2.97885e-07
3.40798e-06
3.40708e-06
2.0577e-05
2.05783e-05
5.29993e-07
2.42818e-07
1.50002e-06
2.62602e-07
5.30198e-07
2.42818e-07
1.49917e-06
1.8619e-06
8.81404e-06
1.86245e-06
8.81364e-06
1.86174e-06
8.8147e-06
1.86222e-06
8.81429e-06
2.05788e-05
2.05785e-05
2.05792e-05
2.05789e-05
1.40201e-05
1.27989e-05
1.86252e-06
2.2562e-06
1.27992e-05
2.25684e-06
1.40205e-05
2.36997e-05
4.82099e-06
8.81269e-06
4.81934e-06
2.3698e-05
1.40199e-05
1.86176e-06
1.27989e-05
2.25693e-06
1.27989e-05
2.25605e-06
1.402e-05
2.3699e-05
4.81965e-06
8.81312e-06
4.82052e-06
2.37002e-05
2.05794e-05
2.05788e-05
6.29826e-06
2.29191e-05
2.29198e-05
2.29178e-05
2.29186e-05
6.29646e-06
1.78313e-06
7.68367e-07
3.40672e-06
8.98759e-06
7.68037e-07
8.98749e-06
1.7838e-06
1.78484e-06
7.68631e-07
3.40781e-06
8.99169e-06
7.68309e-07
8.9916e-06
1.7855e-06
1.78366e-06
8.98738e-06
3.40743e-06
7.68067e-07
7.68339e-07
8.98773e-06
1.78299e-06
1.78535e-06
8.99149e-06
3.4085e-06
7.68339e-07
7.68603e-07
8.99183e-06
1.7847e-06
6.29733e-06
2.29175e-05
2.29183e-05
2.29195e-05
2.29202e-05
6.29778e-06
1.40199e-05
1.86239e-06
1.27987e-05
2.25611e-06
1.27991e-05
2.25674e-06
1.40199e-05
2.36996e-05
4.82091e-06
8.81247e-06
2.36984e-05
4.81917e-06
1.40197e-05
1.86173e-06
1.27989e-05
2.25686e-06
1.402e-05
1.27989e-05
2.25595e-06
2.36988e-05
4.81957e-06
8.81271e-06
4.82048e-06
2.36999e-05
2.05794e-05
2.05787e-05
1.40209e-05
2.25611e-06
1.27999e-05
1.86229e-06
2.2567e-06
1.28002e-05
1.40209e-05
2.36985e-05
8.81382e-06
4.82193e-06
4.82034e-06
2.36974e-05
2.36979e-05
4.8207e-06
8.81414e-06
4.8215e-06
2.36988e-05
1.40208e-05
1.86168e-06
2.25682e-06
1.28001e-05
2.25598e-06
1.28001e-05
1.40211e-05
2.0579e-05
2.05785e-05
6.29825e-06
2.29183e-05
2.29191e-05
2.29178e-05
2.29186e-05
6.29763e-06
1.78312e-06
7.68364e-07
8.98759e-06
3.40672e-06
1.78379e-06
7.68036e-07
8.98748e-06
1.78482e-06
7.6863e-07
8.99169e-06
3.4078e-06
1.78548e-06
7.68306e-07
8.9916e-06
6.2971e-06
2.29174e-05
2.29181e-05
6.29745e-06
2.29194e-05
2.29201e-05
1.78365e-06
8.98743e-06
3.40743e-06
7.68067e-07
7.68337e-07
8.98772e-06
1.78344e-06
1.78535e-06
8.99154e-06
3.40851e-06
7.684e-07
7.68602e-07
8.99182e-06
1.78515e-06
1.40208e-05
1.27991e-05
2.25626e-06
1.86247e-06
1.27993e-05
2.25684e-06
1.40208e-05
2.37003e-05
8.81379e-06
4.82354e-06
4.82188e-06
2.36993e-05
2.36997e-05
4.82216e-06
8.81409e-06
4.823e-06
2.37005e-05
1.40207e-05
1.86182e-06
1.27991e-05
2.25697e-06
1.27991e-05
2.25611e-06
1.40211e-05
1.40198e-05
1.27996e-05
1.86183e-06
2.25671e-06
1.40205e-05
1.27992e-05
2.25606e-06
2.36984e-05
4.81958e-06
8.81291e-06
2.37001e-05
4.82046e-06
1.40204e-05
1.86239e-06
1.27988e-05
2.25609e-06
1.40199e-05
1.27993e-05
2.25674e-06
2.37001e-05
4.82006e-06
8.81267e-06
2.36986e-05
4.81923e-06
1.40205e-05
1.27999e-05
2.2567e-06
1.86177e-06
1.40208e-05
1.27995e-05
2.25611e-06
2.36987e-05
8.81406e-06
4.822e-06
4.82284e-06
2.37005e-05
2.37001e-05
4.8225e-06
8.81374e-06
2.36991e-05
4.82169e-06
1.40214e-05
1.86234e-06
1.27991e-05
2.25622e-06
1.27997e-05
2.25682e-06
1.4021e-05
6.29763e-06
2.29191e-05
2.29185e-05
2.29178e-05
2.29172e-05
6.29584e-06
1.78475e-06
7.68661e-07
3.40785e-06
8.99112e-06
8.99098e-06
7.68334e-07
1.78542e-06
1.78286e-06
7.68279e-07
3.40667e-06
8.9876e-06
7.67949e-07
8.98746e-06
1.78352e-06
1.78527e-06
8.99087e-06
3.40855e-06
7.68362e-07
8.99125e-06
7.68631e-07
1.78462e-06
1.78337e-06
8.98735e-06
3.40745e-06
7.67977e-07
7.68248e-07
8.98773e-06
1.78272e-06
6.29669e-06
2.29175e-05
2.29169e-05
2.29194e-05
2.29189e-05
6.29716e-06
2.05765e-05
2.0576e-05
2.05785e-05
2.0579e-05
6.29639e-06
2.29183e-05
2.29177e-05
6.29683e-06
2.29193e-05
2.29188e-05
1.78556e-06
7.68359e-07
3.40854e-06
8.99085e-06
7.68629e-07
8.99124e-06
1.78459e-06
1.78366e-06
7.67973e-07
3.40744e-06
8.98733e-06
8.98771e-06
7.68245e-07
1.7827e-06
1.78476e-06
8.99137e-06
7.68601e-07
3.40783e-06
7.68335e-07
1.78544e-06
8.99099e-06
1.78287e-06
8.98785e-06
7.68217e-07
3.40665e-06
1.78354e-06
8.98747e-06
7.67949e-07
6.29647e-06
2.29191e-05
2.29185e-05
2.29178e-05
2.29172e-05
6.29598e-06
2.05758e-05
2.05764e-05
1.40205e-05
2.25615e-06
1.27992e-05
1.86244e-06
2.25674e-06
1.27996e-05
1.40205e-05
2.36994e-05
8.81323e-06
4.82294e-06
4.82128e-06
2.36983e-05
2.36987e-05
4.82152e-06
8.81355e-06
4.82239e-06
2.36996e-05
1.40204e-05
1.86179e-06
2.25688e-06
1.27994e-05
2.25601e-06
1.27994e-05
1.40208e-05
1.40211e-05
1.2799e-05
2.25627e-06
1.86244e-06
1.27995e-05
2.25686e-06
1.40211e-05
2.37017e-05
8.81379e-06
4.8223e-06
4.82064e-06
2.37007e-05
2.37011e-05
4.82088e-06
8.81409e-06
4.82176e-06
2.37019e-05
1.4021e-05
1.86179e-06
1.27993e-05
2.257e-06
1.27992e-05
2.25614e-06
1.40213e-05
1.40202e-05
2.25659e-06
1.27999e-05
1.86179e-06
1.40205e-05
2.256e-06
1.27995e-05
2.36977e-05
8.81352e-06
4.82138e-06
4.82222e-06
2.36996e-05
2.36992e-05
4.82187e-06
8.81318e-06
2.36981e-05
4.82107e-06
1.4021e-05
1.86244e-06
2.25612e-06
1.27992e-05
2.25672e-06
1.27996e-05
1.40207e-05
1.40208e-05
1.27998e-05
2.25672e-06
1.86179e-06
1.40211e-05
1.27994e-05
2.25613e-06
2.37001e-05
8.81405e-06
4.82074e-06
4.82158e-06
2.37019e-05
2.37015e-05
4.82124e-06
8.81374e-06
2.37004e-05
4.82043e-06
1.40216e-05
1.86244e-06
1.27991e-05
2.25625e-06
1.27995e-05
2.25684e-06
1.40212e-05
1.40201e-05
1.27992e-05
1.86251e-06
2.25645e-06
2.25709e-06
1.27996e-05
1.40203e-05
2.37015e-05
4.8223e-06
8.81387e-06
4.82066e-06
2.37004e-05
1.402e-05
1.86185e-06
2.25723e-06
1.27994e-05
2.25631e-06
1.27994e-05
1.40203e-05
2.37009e-05
4.82092e-06
8.81417e-06
4.82177e-06
2.37017e-05
1.40196e-05
2.25623e-06
1.27997e-05
1.86228e-06
2.25688e-06
1.28001e-05
1.40199e-05
2.36978e-05
8.8144e-06
4.82251e-06
4.82073e-06
2.36965e-05
2.3697e-05
4.821e-06
8.81469e-06
4.82199e-06
2.3698e-05
1.40194e-05
1.86167e-06
2.25702e-06
1.28e-05
2.25609e-06
1.28e-05
1.40197e-05
1.40197e-05
1.28e-05
1.86185e-06
2.25694e-06
1.40202e-05
2.2563e-06
1.27995e-05
2.36999e-05
4.82077e-06
8.81398e-06
4.8216e-06
2.37017e-05
1.40204e-05
1.86251e-06
2.2564e-06
1.27992e-05
2.25706e-06
1.27997e-05
1.40201e-05
2.37013e-05
4.82126e-06
8.81369e-06
2.37003e-05
4.82047e-06
1.40193e-05
2.25674e-06
1.28005e-05
1.86167e-06
1.40199e-05
2.25609e-06
1.28001e-05
2.3696e-05
8.81466e-06
4.82089e-06
4.82186e-06
2.3698e-05
2.36977e-05
4.82149e-06
8.81435e-06
2.36964e-05
4.82056e-06
1.40199e-05
1.86228e-06
2.2562e-06
1.27998e-05
2.25686e-06
1.28002e-05
1.40196e-05
2.05794e-05
2.05788e-05
2.05798e-05
2.05792e-05
6.29696e-06
2.29182e-05
2.2919e-05
6.29742e-06
2.29193e-05
2.292e-05
1.78394e-06
7.68069e-07
3.40745e-06
8.98736e-06
1.78296e-06
7.6834e-07
8.98771e-06
1.78563e-06
7.6834e-07
3.40852e-06
8.99147e-06
1.78466e-06
7.68606e-07
8.99181e-06
1.78313e-06
8.98785e-06
7.68309e-07
3.40673e-06
1.78382e-06
7.68042e-07
8.9875e-06
1.78484e-06
8.99195e-06
7.68575e-07
3.40781e-06
1.78551e-06
7.68314e-07
8.99161e-06
6.297e-06
2.29189e-05
2.29197e-05
6.29648e-06
2.29177e-05
2.29184e-05
2.05785e-05
2.0579e-05
2.05789e-05
2.05794e-05
2.05783e-05
2.05775e-05
2.05784e-05
2.05778e-05
6.29845e-06
2.29191e-05
2.29197e-05
2.2918e-05
2.2918e-05
6.29655e-06
1.78336e-06
7.68417e-07
3.40694e-06
8.98905e-06
8.98797e-06
7.67991e-07
1.78444e-06
1.78552e-06
7.68768e-07
3.40777e-06
8.99015e-06
8.99064e-06
7.68498e-07
1.78614e-06
1.78377e-06
8.98759e-06
3.40759e-06
7.67992e-07
8.98796e-06
1.78307e-06
7.68255e-07
1.78611e-06
8.99103e-06
3.40847e-06
7.6853e-07
8.99118e-06
1.78536e-06
7.68814e-07
6.29739e-06
2.29185e-05
2.29173e-05
2.29199e-05
2.29194e-05
6.29787e-06
1.40208e-05
1.8624e-06
1.27991e-05
2.25623e-06
1.27996e-05
2.25682e-06
1.40208e-05
2.37001e-05
4.82238e-06
8.81371e-06
2.3699e-05
4.8216e-06
1.40207e-05
1.86174e-06
1.27999e-05
2.25668e-06
1.27994e-05
1.40211e-05
2.25609e-06
2.36994e-05
4.82238e-06
8.81401e-06
4.82279e-06
2.36998e-05
6.29772e-06
2.29183e-05
2.29178e-05
2.29179e-05
2.29173e-05
6.29707e-06
1.78475e-06
7.68597e-07
8.99136e-06
3.40783e-06
8.99098e-06
1.78541e-06
7.68331e-07
1.78285e-06
7.68213e-07
8.98784e-06
3.40665e-06
7.67944e-07
1.7835e-06
8.98746e-06
6.29667e-06
2.29183e-05
2.29177e-05
2.29194e-05
6.29701e-06
2.29189e-05
1.78528e-06
8.99092e-06
3.40855e-06
7.68358e-07
8.99125e-06
7.68627e-07
1.78507e-06
1.78337e-06
8.9874e-06
3.40744e-06
7.6797e-07
7.68241e-07
8.98773e-06
1.78319e-06
2.05761e-05
2.05754e-05
1.40203e-05
1.27997e-05
2.25639e-06
1.8623e-06
1.28e-05
2.25704e-06
1.40204e-05
2.37007e-05
8.81356e-06
4.82208e-06
4.82031e-06
2.36994e-05
2.36998e-05
4.82059e-06
8.81388e-06
4.82156e-06
2.37009e-05
1.40202e-05
1.8617e-06
1.27999e-05
2.25717e-06
1.27999e-05
2.25626e-06
1.40205e-05
1.40205e-05
1.86245e-06
2.2565e-06
1.27993e-05
2.25672e-06
1.27997e-05
1.40205e-05
2.36991e-05
4.82175e-06
8.81315e-06
4.82098e-06
2.36981e-05
1.40204e-05
1.86179e-06
2.25658e-06
1.28e-05
2.256e-06
1.40208e-05
1.27995e-05
2.36985e-05
4.82175e-06
8.81347e-06
4.82216e-06
2.36988e-05
1.4021e-05
1.86245e-06
1.27992e-05
2.25663e-06
1.27995e-05
2.25684e-06
1.40211e-05
2.37015e-05
4.82112e-06
8.81371e-06
2.37004e-05
4.82034e-06
1.4021e-05
1.86179e-06
1.27998e-05
2.2567e-06
1.40213e-05
1.27994e-05
2.25612e-06
2.37008e-05
4.82111e-06
8.81401e-06
4.82152e-06
2.37011e-05
6.29898e-06
2.29202e-05
2.29192e-05
2.2919e-05
2.2918e-05
6.29698e-06
1.78503e-06
7.6866e-07
3.4078e-06
8.99132e-06
8.99131e-06
7.68339e-07
1.78569e-06
1.7831e-06
7.68358e-07
3.40692e-06
8.98767e-06
7.6803e-07
8.98744e-06
1.78377e-06
1.78552e-06
8.99125e-06
3.40857e-06
7.68358e-07
8.99155e-06
7.68625e-07
1.78485e-06
1.78366e-06
8.98726e-06
3.40763e-06
7.68069e-07
7.68337e-07
8.98769e-06
1.78298e-06
6.29822e-06
2.29185e-05
2.29178e-05
2.29207e-05
2.29196e-05
6.29886e-06
2.05784e-05
2.0578e-05
1.40201e-05
1.86251e-06
2.25641e-06
1.27993e-05
2.25705e-06
1.27997e-05
1.40201e-05
2.37013e-05
4.82114e-06
8.81367e-06
4.82037e-06
2.37002e-05
1.40199e-05
1.86185e-06
2.25691e-06
1.28e-05
2.25628e-06
1.40202e-05
1.27996e-05
2.37006e-05
4.82072e-06
8.81398e-06
4.82153e-06
2.37015e-05
1.40196e-05
1.86228e-06
2.25621e-06
1.27999e-05
2.25686e-06
1.28003e-05
1.40195e-05
2.36976e-05
4.8214e-06
8.81432e-06
2.36964e-05
4.82049e-06
1.40194e-05
1.86168e-06
2.25672e-06
1.28005e-05
1.40197e-05
2.25608e-06
1.28001e-05
2.36967e-05
4.82117e-06
8.81462e-06
4.8218e-06
2.3697e-05
2.05788e-05
2.05784e-05
2.05793e-05
2.05788e-05
2.26212e-07
2.26211e-07
2.32272e-07
2.26224e-07
2.26223e-07
2.23314e-07
2.23316e-07
6.23351e-07
3.84826e-07
3.84852e-07
2.97878e-07
3.84648e-07
3.84673e-07
6.23658e-07
2.2621e-07
2.2621e-07
2.32264e-07
2.26215e-07
2.26214e-07
2.23313e-07
2.23314e-07
6.2335e-07
3.84826e-07
3.84853e-07
2.97876e-07
6.23659e-07
3.84649e-07
3.84673e-07
6.23341e-07
3.84867e-07
3.84824e-07
2.97875e-07
3.84643e-07
3.84687e-07
6.23653e-07
6.23663e-07
2.98165e-07
3.84672e-07
3.84631e-07
3.84873e-07
3.84833e-07
6.23324e-07
6.23675e-07
2.98166e-07
3.84639e-07
3.84663e-07
6.23338e-07
3.84837e-07
3.84863e-07
6.23446e-07
3.8485e-07
3.84945e-07
2.97897e-07
3.84649e-07
3.84775e-07
6.23753e-07
6.23339e-07
3.84884e-07
3.84844e-07
2.97883e-07
3.84642e-07
6.2365e-07
3.84682e-07
6.23386e-07
3.84875e-07
3.84844e-07
2.97892e-07
3.84667e-07
3.84696e-07
6.23695e-07
2.26217e-07
2.26217e-07
2.32279e-07
2.26228e-07
2.26228e-07
2.23321e-07
2.23323e-07
2.26217e-07
2.2622e-07
2.32284e-07
2.26231e-07
2.26229e-07
2.23322e-07
2.23324e-07
2.26217e-07
2.26216e-07
2.32278e-07
2.26228e-07
2.26227e-07
2.2332e-07
2.23321e-07
2.3227e-07
2.26212e-07
2.26211e-07
2.26221e-07
2.2622e-07
2.23326e-07
2.23323e-07
2.32273e-07
2.2622e-07
2.2622e-07
2.26222e-07
2.26222e-07
2.23332e-07
2.23331e-07
2.32278e-07
2.26221e-07
2.26223e-07
2.26226e-07
2.26223e-07
2.23333e-07
2.23332e-07
2.32273e-07
2.26221e-07
2.26219e-07
2.26222e-07
2.26221e-07
2.2333e-07
2.2333e-07
3.34479e-07
5.93582e-07
3.18561e-07
5.30184e-07
5.93845e-07
3.18755e-07
3.34197e-07
3.87638e-07
4.98167e-07
1.49893e-06
8.73323e-07
4.97823e-07
8.72731e-07
3.88017e-07
3.88019e-07
8.72771e-07
1.49991e-06
4.97815e-07
4.98173e-07
8.73275e-07
3.87642e-07
3.34195e-07
5.29997e-07
5.93851e-07
3.18748e-07
5.9358e-07
3.18565e-07
3.34494e-07
3.34499e-07
3.18579e-07
5.30233e-07
5.93634e-07
3.18773e-07
5.93893e-07
3.34221e-07
3.8766e-07
4.98201e-07
8.73274e-07
1.49898e-06
8.72698e-07
3.88031e-07
4.97861e-07
3.34219e-07
5.30042e-07
3.18766e-07
5.93898e-07
3.18583e-07
5.93628e-07
3.34514e-07
3.88034e-07
8.72746e-07
1.49999e-06
4.97854e-07
8.7323e-07
3.87667e-07
4.98207e-07
6.23642e-07
2.98162e-07
3.84637e-07
3.84662e-07
3.84837e-07
3.84862e-07
6.23342e-07
2.26231e-07
2.26231e-07
2.32282e-07
2.2623e-07
2.26232e-07
2.23321e-07
2.23323e-07
2.26232e-07
2.26234e-07
2.32287e-07
2.26232e-07
2.26233e-07
2.23322e-07
2.23324e-07
2.26231e-07
2.2623e-07
2.32282e-07
2.26232e-07
2.26229e-07
2.2332e-07
2.23321e-07
3.34479e-07
5.30181e-07
5.93578e-07
3.18563e-07
5.9384e-07
3.18756e-07
3.34195e-07
3.87636e-07
4.98162e-07
8.73294e-07
1.49892e-06
3.88014e-07
4.9782e-07
8.72701e-07
3.34195e-07
5.29994e-07
5.93846e-07
3.18747e-07
3.34495e-07
5.93575e-07
3.18565e-07
3.88016e-07
8.72738e-07
1.49991e-06
4.97815e-07
4.98168e-07
8.73246e-07
3.87635e-07
3.34497e-07
5.30224e-07
3.18577e-07
5.93618e-07
3.18772e-07
5.93883e-07
3.34214e-07
3.87652e-07
4.98196e-07
8.7325e-07
1.499e-06
3.8803e-07
4.97854e-07
8.72671e-07
3.34214e-07
5.30033e-07
3.18765e-07
5.93889e-07
3.34511e-07
3.18582e-07
5.93619e-07
3.88031e-07
8.72713e-07
1.49995e-06
4.97849e-07
4.98204e-07
8.73202e-07
3.87654e-07
6.23642e-07
2.98162e-07
3.84643e-07
3.84669e-07
3.84837e-07
3.84863e-07
6.23345e-07
3.34473e-07
3.18568e-07
5.30179e-07
5.93541e-07
5.93796e-07
3.18763e-07
3.34197e-07
3.87619e-07
4.98187e-07
8.73095e-07
1.49898e-06
8.72527e-07
3.87987e-07
4.97874e-07
3.34189e-07
5.29982e-07
5.93789e-07
3.18753e-07
5.93528e-07
3.1857e-07
3.34483e-07
3.88004e-07
8.72599e-07
1.50009e-06
4.97948e-07
8.73084e-07
3.87647e-07
4.98283e-07
3.34483e-07
5.93586e-07
3.18568e-07
5.3018e-07
5.93847e-07
3.18764e-07
3.34202e-07
3.87674e-07
4.98258e-07
1.49914e-06
8.73445e-07
8.72855e-07
4.97916e-07
3.88047e-07
3.88049e-07
8.72898e-07
1.50009e-06
4.97905e-07
8.73394e-07
3.87679e-07
4.98262e-07
3.342e-07
5.2999e-07
5.93854e-07
3.18753e-07
5.93584e-07
3.1857e-07
3.34496e-07
3.34191e-07
3.18774e-07
5.29995e-07
5.9379e-07
3.34485e-07
5.93533e-07
3.18583e-07
3.88002e-07
4.97886e-07
8.72556e-07
1.49996e-06
8.73055e-07
3.8764e-07
4.98217e-07
3.3449e-07
5.30186e-07
5.93529e-07
3.18571e-07
5.93791e-07
3.1877e-07
3.34203e-07
3.87638e-07
8.7303e-07
4.98292e-07
1.49903e-06
3.88019e-07
8.72531e-07
4.97879e-07
3.34198e-07
5.93835e-07
3.18776e-07
5.29997e-07
3.34492e-07
5.93577e-07
3.18584e-07
3.88041e-07
4.97905e-07
1.50009e-06
8.72871e-07
8.7337e-07
4.98259e-07
3.87677e-07
3.87673e-07
8.73323e-07
4.98265e-07
1.49914e-06
3.88046e-07
8.72836e-07
4.97912e-07
3.345e-07
5.30188e-07
5.93583e-07
3.18571e-07
5.93843e-07
3.18772e-07
3.34211e-07
6.23633e-07
2.98162e-07
3.84674e-07
3.84632e-07
3.84834e-07
3.84876e-07
6.2333e-07
6.23344e-07
2.97881e-07
3.84886e-07
3.84845e-07
3.84684e-07
6.23656e-07
3.84643e-07
3.34478e-07
3.18562e-07
5.93578e-07
5.30172e-07
3.18756e-07
5.9384e-07
3.34199e-07
3.87647e-07
4.98179e-07
1.49895e-06
8.73319e-07
4.97839e-07
8.72726e-07
3.88022e-07
3.88023e-07
8.72764e-07
1.4999e-06
4.97833e-07
4.98189e-07
8.73264e-07
3.87653e-07
3.34197e-07
5.29983e-07
3.18747e-07
5.93848e-07
3.18564e-07
5.93578e-07
3.34493e-07
3.34193e-07
5.93839e-07
3.18767e-07
5.29997e-07
3.34488e-07
5.9358e-07
3.18577e-07
3.88007e-07
4.97813e-07
1.49992e-06
8.7276e-07
3.87637e-07
4.98171e-07
8.73264e-07