/*--------------------------------*- C++ -*----------------------------------*\
| =========                 |                                                 |
| \\      /  F ield         | OpenFOAM: The Open Source CFD Toolbox           |
|  \\    /   O peration     | Version:  v1912                                 |
|   \\  /    A nd           | Website:  www.openfoam.com                      |
|    \\/     M anipulation  |                                                 |
\*---------------------------------------------------------------------------*/
FoamFile
{
    version     2.0;
    format      ascii;
    class       volScalarField;
    location    "40";
    object      k;
}
// * * * * * * * * * * * * * * * * * * * * * * * * * * * * * * * * * * * * * //

dimensions      [0 2 -2 0 0 0 0];


internalField   nonuniform List<scalar> 
57566
(
7.4831e-05
2.10807e-05
2.23539e-05
2.27589e-05
2.77196e-05
2.16682e-05
3.83221e-05
3.8327e-05
7.48319e-05
7.48367e-05
2.16653e-05
3.83207e-05
3.83269e-05
2.83005e-05
6.95287e-05
2.83016e-05
6.95377e-05
2.10781e-05
2.2354e-05
2.77238e-05
2.27597e-05
2.10782e-05
2.23541e-05
2.77263e-05
2.27597e-05
7.48379e-05
2.16651e-05
3.83251e-05
3.83196e-05
7.4832e-05
2.82992e-05
6.95286e-05
2.10797e-05
2.23535e-05
2.27593e-05
2.77197e-05
2.83025e-05
6.95369e-05
2.10809e-05
2.23547e-05
2.77257e-05
2.276e-05
2.83021e-05
6.953e-05
2.10827e-05
2.23535e-05
2.27593e-05
2.77269e-05
2.10794e-05
2.23536e-05
2.27593e-05
2.77194e-05
2.82967e-05
6.95325e-05
2.10819e-05
2.2354e-05
2.77235e-05
2.27592e-05
2.83008e-05
6.95343e-05
2.10824e-05
2.23536e-05
2.27593e-05
2.77264e-05
2.83e-05
6.95338e-05
2.16697e-05
3.832e-05
3.83213e-05
7.48371e-05
7.48295e-05
2.16668e-05
3.83232e-05
3.83239e-05
7.48348e-05
2.108e-05
2.23541e-05
2.27593e-05
2.77209e-05
2.82993e-05
6.95326e-05
2.82995e-05
6.95359e-05
2.10836e-05
2.23539e-05
2.27589e-05
2.77264e-05
2.1083e-05
2.23541e-05
2.27593e-05
2.77278e-05
2.8302e-05
6.95339e-05
2.8302e-05
6.95372e-05
7.4837e-05
7.48364e-05
2.16652e-05
3.83248e-05
3.83295e-05
7.48347e-05
7.48341e-05
7.4832e-05
5.33653e-05
7.46332e-05
7.46302e-05
7.46322e-05
7.46292e-05
5.33656e-05
2.99093e-05
6.8553e-05
3.83234e-05
2.27554e-05
2.27566e-05
6.85555e-05
2.99046e-05
2.99247e-05
6.85618e-05
3.83281e-05
2.27574e-05
2.27585e-05
6.85643e-05
2.99203e-05
7.48308e-05
7.4836e-05
5.33621e-05
7.46328e-05
7.4629e-05
5.33619e-05
7.46328e-05
7.46291e-05
2.99041e-05
6.85538e-05
2.27562e-05
3.83198e-05
2.99091e-05
6.85517e-05
2.2755e-05
2.99187e-05
6.85641e-05
2.27587e-05
3.83268e-05
2.99253e-05
6.85607e-05
2.27575e-05
7.69189e-05
7.80728e-05
3.08629e-05
2.82973e-05
7.69212e-05
7.80701e-05
3.08614e-05
7.3627e-05
4.79116e-05
6.95258e-05
7.36255e-05
4.79114e-05
7.69235e-05
7.80739e-05
3.0868e-05
2.82983e-05
7.69262e-05
7.80712e-05
3.08668e-05
7.36312e-05
4.79484e-05
6.9535e-05
7.3631e-05
4.7948e-05
7.48369e-05
5.33658e-05
7.46295e-05
7.46321e-05
5.33646e-05
7.46297e-05
7.46323e-05
2.9919e-05
6.85616e-05
2.27583e-05
3.8325e-05
2.27572e-05
2.99246e-05
6.85591e-05
2.9903e-05
6.85547e-05
2.27561e-05
3.83191e-05
2.99084e-05
6.8552e-05
2.27549e-05
7.4831e-05
7.69216e-05
2.8302e-05
7.80741e-05
3.08627e-05
7.80772e-05
3.08659e-05
7.69193e-05
7.36275e-05
4.79235e-05
6.95313e-05
4.79274e-05
7.36275e-05
7.69235e-05
3.08655e-05
7.80771e-05
2.82995e-05
7.69263e-05
3.08642e-05
7.80747e-05
7.3628e-05
4.79268e-05
6.95342e-05
7.36278e-05
4.79268e-05
7.69131e-05
7.80738e-05
3.08671e-05
2.82999e-05
7.69178e-05
7.80709e-05
3.08653e-05
7.36232e-05
4.79265e-05
6.95272e-05
7.36223e-05
4.79245e-05
7.69254e-05
2.83004e-05
7.80714e-05
3.08646e-05
7.80748e-05
3.08673e-05
7.69232e-05
7.36325e-05
4.79333e-05
6.95351e-05
4.79369e-05
7.36324e-05
7.69233e-05
3.08674e-05
7.80748e-05
2.82976e-05
7.6926e-05
3.0866e-05
7.8072e-05
7.36312e-05
4.79448e-05
6.95315e-05
7.36309e-05
4.79443e-05
7.69175e-05
7.80729e-05
3.08686e-05
2.82979e-05
7.69215e-05
7.807e-05
3.08671e-05
7.36274e-05
4.79355e-05
6.95311e-05
7.36271e-05
4.79337e-05
5.33637e-05
7.46303e-05
7.46336e-05
7.46292e-05
7.46325e-05
5.3364e-05
2.99248e-05
6.85594e-05
3.83215e-05
2.27568e-05
6.8562e-05
2.2758e-05
2.99202e-05
2.99092e-05
6.85529e-05
3.83224e-05
2.27563e-05
2.27574e-05
6.85554e-05
2.99047e-05
7.48378e-05
7.48279e-05
5.33739e-05
7.46259e-05
7.46292e-05
5.33721e-05
7.46269e-05
7.46301e-05
2.9924e-05
6.85609e-05
2.27601e-05
3.83223e-05
2.2759e-05
2.99271e-05
6.85584e-05
2.99084e-05
6.85545e-05
2.27595e-05
3.83241e-05
2.99115e-05
6.85519e-05
2.27584e-05
7.48334e-05
7.69258e-05
2.83021e-05
3.08652e-05
7.80746e-05
3.08679e-05
7.80778e-05
7.69235e-05
7.36327e-05
4.7933e-05
6.95353e-05
4.79366e-05
7.36326e-05
7.69265e-05
2.83028e-05
3.08651e-05
7.80751e-05
3.08678e-05
7.80782e-05
7.69242e-05
7.363e-05
4.79422e-05
6.95385e-05
4.79456e-05
7.363e-05
7.69178e-05
3.08691e-05
7.80743e-05
2.82998e-05
7.69218e-05
3.08677e-05
7.80714e-05
7.36277e-05
4.79352e-05
6.95312e-05
7.36273e-05
4.79334e-05
7.69184e-05
3.0869e-05
7.80748e-05
2.82998e-05
7.69225e-05
3.08676e-05
7.80718e-05
7.3625e-05
4.79443e-05
6.95345e-05
7.36247e-05
4.79427e-05
7.48377e-05
7.48372e-05
5.33722e-05
7.46288e-05
7.46257e-05
5.33719e-05
7.46295e-05
7.46265e-05
2.9908e-05
6.85546e-05
2.27587e-05
3.83249e-05
2.99113e-05
2.27576e-05
6.85521e-05
2.99236e-05
6.85634e-05
2.27607e-05
3.83297e-05
2.99268e-05
2.27596e-05
6.85609e-05
7.48334e-05
7.48328e-05
2.31491e-05
2.3412e-05
2.34122e-05
2.35905e-05
2.3149e-05
2.3412e-05
2.34121e-05
2.35904e-05
2.31485e-05
2.34117e-05
2.3412e-05
2.35902e-05
2.31495e-05
2.34123e-05
2.34127e-05
2.35906e-05
2.31491e-05
2.3412e-05
2.34122e-05
2.35905e-05
2.3149e-05
2.3412e-05
2.3412e-05
2.35903e-05
2.12652e-05
2.10811e-05
2.13542e-05
2.13379e-05
2.13513e-05
2.13386e-05
2.12676e-05
2.12046e-05
2.31993e-05
2.77242e-05
2.1524e-05
2.15252e-05
2.32015e-05
2.12057e-05
2.22323e-05
2.16623e-05
2.1406e-05
2.14054e-05
2.14062e-05
2.14056e-05
2.22308e-05
2.22327e-05
2.167e-05
2.14074e-05
2.14069e-05
2.22343e-05
2.14073e-05
2.14068e-05
2.12666e-05
2.13349e-05
2.1352e-05
2.10779e-05
2.12639e-05
2.13342e-05
2.13539e-05
2.12051e-05
2.31968e-05
2.15222e-05
2.77189e-05
2.15211e-05
2.12033e-05
2.31945e-05
2.12669e-05
2.1336e-05
2.13522e-05
2.10781e-05
2.12642e-05
2.13354e-05
2.1354e-05
2.12062e-05
2.3202e-05
2.15233e-05
2.77215e-05
2.12044e-05
2.31999e-05
2.15222e-05
2.22323e-05
2.16698e-05
2.14066e-05
2.14073e-05
2.14066e-05
2.22339e-05
2.14073e-05
2.12644e-05
2.10799e-05
2.13546e-05
2.13359e-05
2.13517e-05
2.13367e-05
2.12668e-05
2.12032e-05
2.31967e-05
2.77247e-05
2.15228e-05
2.3199e-05
2.12044e-05
2.1524e-05
2.12669e-05
2.1336e-05
2.13532e-05
2.10807e-05
2.12642e-05
2.13354e-05
2.13551e-05
2.12059e-05
2.31994e-05
2.15234e-05
2.77208e-05
2.15222e-05
2.12041e-05
2.31972e-05
2.12663e-05
2.13534e-05
2.13386e-05
2.10824e-05
2.1264e-05
2.13552e-05
2.1338e-05
2.12037e-05
2.32008e-05
2.15259e-05
2.77218e-05
2.12026e-05
2.31986e-05
2.15248e-05
2.12647e-05
2.10798e-05
2.13548e-05
2.13363e-05
2.13518e-05
2.13371e-05
2.12671e-05
2.12037e-05
2.31985e-05
2.77241e-05
2.15231e-05
2.15243e-05
2.32008e-05
2.12049e-05
2.12673e-05
2.1338e-05
2.13544e-05
2.10816e-05
2.12645e-05
2.13374e-05
2.13564e-05
2.12063e-05
2.32015e-05
2.15236e-05
2.77185e-05
2.12045e-05
2.15226e-05
2.31992e-05
2.12665e-05
2.13536e-05
2.1339e-05
2.10821e-05
2.12643e-05
2.13555e-05
2.13383e-05
2.12042e-05
2.32027e-05
2.15262e-05
2.77217e-05
2.12031e-05
2.32004e-05
2.15251e-05
2.22331e-05
2.16638e-05
2.14066e-05
2.14076e-05
2.14077e-05
2.14067e-05
2.22316e-05
2.22323e-05
2.16706e-05
2.1409e-05
2.141e-05
2.1409e-05
2.2234e-05
2.14099e-05
2.12647e-05
2.10803e-05
2.13548e-05
2.13365e-05
2.13518e-05
2.13373e-05
2.12671e-05
2.1204e-05
2.31994e-05
2.77256e-05
2.15237e-05
2.15248e-05
2.32016e-05
2.12052e-05
2.1267e-05
2.13531e-05
2.13407e-05
2.10833e-05
2.12648e-05
2.13551e-05
2.134e-05
2.1205e-05
2.32034e-05
2.15269e-05
2.77218e-05
2.12039e-05
2.15258e-05
2.32012e-05
2.12665e-05
2.13535e-05
2.13392e-05
2.10828e-05
2.12643e-05
2.13553e-05
2.13386e-05
2.12045e-05
2.32035e-05
2.15268e-05
2.77231e-05
2.12034e-05
2.32013e-05
2.15257e-05
2.22314e-05
2.16691e-05
2.14083e-05
2.14077e-05
2.22332e-05
2.14082e-05
2.14076e-05
7.48163e-05
7.4814e-05
2.16455e-05
3.83512e-05
3.83538e-05
2.8302e-05
6.95275e-05
2.83028e-05
2.10627e-05
2.23329e-05
2.77282e-05
2.27388e-05
2.1063e-05
2.2739e-05
2.83035e-05
6.95312e-05
2.10632e-05
2.23327e-05
2.7729e-05
2.27382e-05
2.83032e-05
6.95274e-05
2.10627e-05
2.23321e-05
2.27379e-05
2.77288e-05
7.48128e-05
2.16451e-05
3.83516e-05
3.83525e-05
7.48158e-05
2.10638e-05
2.2333e-05
2.2738e-05
2.77287e-05
2.10627e-05
2.27389e-05
2.83029e-05
6.95303e-05
2.83028e-05
7.48173e-05
7.48152e-05
5.34523e-05
7.46188e-05
7.46152e-05
5.34537e-05
7.46201e-05
7.46166e-05
2.99203e-05
6.85461e-05
2.275e-05
3.83489e-05
2.99223e-05
6.85459e-05
2.27489e-05
2.99374e-05
6.85502e-05
2.27526e-05
3.83514e-05
2.99394e-05
6.85502e-05
2.27511e-05
7.68962e-05
7.80515e-05
3.08823e-05
2.83003e-05
7.68968e-05
7.80515e-05
3.08797e-05
7.36119e-05
4.79753e-05
6.95258e-05
7.36112e-05
4.79703e-05
7.69012e-05
7.80531e-05
3.08857e-05
2.83005e-05
7.69017e-05
7.8053e-05
3.08832e-05
7.69007e-05
3.08847e-05
7.8055e-05
2.83026e-05
7.69014e-05
3.08824e-05
7.80549e-05
7.36124e-05
4.7989e-05
6.95301e-05
7.36115e-05
4.79844e-05
7.68965e-05
7.80542e-05
3.08845e-05
2.83025e-05
7.68971e-05
7.80542e-05
3.08818e-05
7.3613e-05
4.79837e-05
6.95259e-05
7.36123e-05
4.79787e-05
7.48135e-05
5.3453e-05
7.46152e-05
7.46187e-05
5.34544e-05
7.46166e-05
7.462e-05
2.99369e-05
6.85512e-05
2.27518e-05
3.83487e-05
2.27505e-05
2.9939e-05
6.85509e-05
2.99213e-05
6.85448e-05
2.27516e-05
3.83502e-05
2.99233e-05
6.85445e-05
2.27504e-05
7.4817e-05
7.68966e-05
3.0886e-05
7.80523e-05
2.83009e-05
7.68973e-05
3.08833e-05
7.80521e-05
7.3617e-05
4.79924e-05
6.9529e-05
7.36161e-05
4.79877e-05
7.68974e-05
3.08829e-05
7.80549e-05
2.8302e-05
7.68979e-05
3.088e-05
7.8055e-05
2.31286e-05
2.33924e-05
2.33925e-05
2.35712e-05
2.33933e-05
2.35718e-05
2.31294e-05
2.33931e-05
2.33932e-05
2.35715e-05
2.33933e-05
2.35716e-05
2.22227e-05
2.16503e-05
2.13879e-05
2.13887e-05
2.22249e-05
2.13886e-05
2.13893e-05
2.12473e-05
2.13233e-05
2.13305e-05
2.10632e-05
2.12445e-05
2.13232e-05
2.13336e-05
2.1187e-05
2.31951e-05
2.15083e-05
2.77216e-05
2.15082e-05
2.11855e-05
2.31923e-05
2.12485e-05
2.1325e-05
2.13308e-05
2.10635e-05
2.12451e-05
2.13247e-05
2.13339e-05
2.12473e-05
2.1323e-05
2.13315e-05
2.10635e-05
2.12446e-05
2.1323e-05
2.13345e-05
2.11868e-05
2.31968e-05
2.15065e-05
2.77223e-05
2.15063e-05
2.11854e-05
2.3194e-05
2.12468e-05
2.13316e-05
2.13226e-05
2.10627e-05
2.12441e-05
2.13346e-05
2.13225e-05
2.11863e-05
2.31961e-05
2.1506e-05
2.77218e-05
2.11849e-05
2.31932e-05
2.1506e-05
2.22221e-05
2.16499e-05
2.13873e-05
2.13884e-05
2.13879e-05
2.22242e-05
2.1389e-05
2.12477e-05
2.13316e-05
2.13248e-05
2.10642e-05
2.12449e-05
2.13347e-05
2.13246e-05
2.11879e-05
2.31987e-05
2.15089e-05
2.77221e-05
2.11865e-05
2.15087e-05
2.31959e-05
2.12479e-05
2.13306e-05
2.13239e-05
2.10632e-05
2.12446e-05
2.13337e-05
2.13237e-05
2.31281e-05
2.23325e-05
2.23323e-05
2.16443e-05
2.3128e-05
2.23324e-05
2.23325e-05
2.16444e-05
2.23319e-05
2.23319e-05
2.2332e-05
2.23321e-05
2.1645e-05
2.165e-05
2.23317e-05
2.23326e-05
2.23318e-05
2.23322e-05
2.23327e-05
2.23324e-05
2.1649e-05
2.16451e-05
2.23328e-05
2.23328e-05
2.16468e-05
2.23322e-05
2.23317e-05
2.23326e-05
2.16445e-05
2.23331e-05
2.8299e-05
6.9528e-05
2.83021e-05
6.95268e-05
7.48168e-05
7.48185e-05
2.31284e-05
2.31282e-05
2.31282e-05
2.31282e-05
2.31286e-05
2.31285e-05
2.31283e-05
2.10639e-05
2.77277e-05
2.27376e-05
2.23334e-05
2.77211e-05
2.27384e-05
2.10634e-05
2.10641e-05
2.27375e-05
2.77291e-05
2.23331e-05
2.27383e-05
2.10639e-05
2.77229e-05
3.83515e-05
3.83561e-05
2.16495e-05
3.83474e-05
3.83521e-05
2.82986e-05
6.95278e-05
2.8302e-05
6.95257e-05
7.48168e-05
7.48183e-05
2.83004e-05
6.95307e-05
6.95295e-05
2.83036e-05
2.31292e-05
2.31292e-05
2.3129e-05
2.1064e-05
2.77276e-05
2.27375e-05
2.23329e-05
2.10634e-05
2.7721e-05
2.2738e-05
7.48116e-05
7.4814e-05
2.10636e-05
2.27374e-05
2.77291e-05
2.23328e-05
2.10635e-05
2.27377e-05
2.77227e-05
3.83515e-05
3.83561e-05
2.165e-05
3.83481e-05
3.83528e-05
2.82995e-05
6.9534e-05
6.95322e-05
2.8303e-05
2.10624e-05
2.77287e-05
2.27377e-05
2.23325e-05
2.27385e-05
2.10613e-05
2.77238e-05
2.10623e-05
2.77305e-05
2.27376e-05
2.23327e-05
2.77241e-05
2.27384e-05
2.10614e-05
2.83016e-05
6.95261e-05
2.82986e-05
6.95288e-05
2.83018e-05
6.9532e-05
6.95342e-05
2.82992e-05
2.10651e-05
2.23322e-05
2.77227e-05
2.27379e-05
2.27381e-05
2.10626e-05
2.77293e-05
2.10651e-05
2.23323e-05
2.77241e-05
2.27379e-05
2.77298e-05
2.2738e-05
2.10627e-05
3.83588e-05
3.83496e-05
2.16502e-05
3.83542e-05
3.83447e-05
7.48119e-05
7.48142e-05
7.4818e-05
7.48185e-05
2.16471e-05
3.83543e-05
3.83448e-05
3.83543e-05
3.83452e-05
7.48136e-05
7.48142e-05
2.8299e-05
6.95306e-05
6.95287e-05
2.83025e-05
2.10625e-05
2.27375e-05
2.77283e-05
2.23325e-05
2.27383e-05
2.77219e-05
2.10616e-05
2.82988e-05
6.95311e-05
6.95293e-05
2.83022e-05
2.1066e-05
2.23332e-05
2.77212e-05
2.27376e-05
2.7727e-05
2.27382e-05
2.10632e-05
2.83016e-05
6.95285e-05
6.95309e-05
2.8299e-05
2.10652e-05
2.23321e-05
2.27377e-05
2.77219e-05
2.27379e-05
2.77275e-05
2.10625e-05
2.83014e-05
6.95292e-05
6.95314e-05
2.82989e-05
2.10628e-05
2.27375e-05
2.77292e-05
2.2333e-05
2.27383e-05
2.77229e-05
2.10617e-05
2.82997e-05
6.95313e-05
2.83033e-05
6.95288e-05
2.82996e-05
6.95332e-05
6.95315e-05
2.83029e-05
2.10661e-05
2.23331e-05
2.27375e-05
2.7723e-05
2.27382e-05
2.10633e-05
2.77289e-05
2.10654e-05
2.23326e-05
2.27377e-05
2.77229e-05
2.27379e-05
2.77286e-05
2.10626e-05
2.83023e-05
6.95284e-05
2.82996e-05
6.95309e-05
2.8302e-05
6.95313e-05
6.95335e-05
2.82997e-05
7.48162e-05
7.48178e-05
7.48154e-05
7.4817e-05
2.16464e-05
3.83479e-05
3.83526e-05
3.83475e-05
3.83521e-05
7.48175e-05
7.48179e-05
7.48167e-05
7.4817e-05
7.48163e-05
7.48176e-05
7.48132e-05
7.4815e-05
3.83532e-05
3.8355e-05
2.16501e-05
3.83478e-05
3.83504e-05
2.82995e-05
6.95341e-05
2.83018e-05
6.95319e-05
2.10625e-05
2.77282e-05
2.27387e-05
2.23328e-05
2.10642e-05
2.77221e-05
2.27386e-05
2.10627e-05
2.77298e-05
2.27386e-05
2.23329e-05
2.10643e-05
2.77241e-05
2.27386e-05
3.83545e-05
3.83453e-05
2.16503e-05
3.83552e-05
3.83456e-05
7.48136e-05
7.48122e-05
2.10628e-05
2.77293e-05
2.27377e-05
2.23325e-05
2.77229e-05
2.27379e-05
2.10621e-05
2.83002e-05
6.95274e-05
6.95256e-05
2.83034e-05
2.10622e-05
2.27374e-05
2.77288e-05
2.23319e-05
2.27377e-05
2.77223e-05
2.10617e-05
2.83011e-05
6.95307e-05
2.83016e-05
6.95284e-05
2.10626e-05
2.27384e-05
2.77275e-05
2.23327e-05
2.10642e-05
2.27385e-05
2.7722e-05
2.8301e-05
6.95312e-05
2.83015e-05
6.9529e-05
3.83523e-05
3.83534e-05
2.16496e-05
3.83478e-05
3.8349e-05
7.48136e-05
7.48169e-05
2.10625e-05
2.27385e-05
2.77286e-05
2.23332e-05
2.10643e-05
2.27384e-05
2.7723e-05
2.82995e-05
6.95306e-05
2.83022e-05
6.95285e-05
2.82997e-05
6.95334e-05
2.8302e-05
6.95312e-05
7.48175e-05
7.48169e-05
7.48167e-05
7.48161e-05
7.68962e-05
7.80508e-05
2.83021e-05
3.08781e-05
7.80525e-05
3.08812e-05
7.68975e-05
7.36137e-05
4.79777e-05
6.9527e-05
4.79669e-05
7.36108e-05
7.68956e-05
2.82983e-05
7.80516e-05
3.08823e-05
7.80514e-05
3.08766e-05
7.68962e-05
7.36121e-05
4.79697e-05
6.95286e-05
4.79728e-05
7.36147e-05
7.48196e-05
7.48181e-05
5.34626e-05
7.46225e-05
7.46194e-05
7.46197e-05
7.46167e-05
5.34512e-05
2.99184e-05
2.27508e-05
3.83456e-05
6.85446e-05
2.27494e-05
6.85441e-05
2.99227e-05
2.99341e-05
2.27526e-05
3.83504e-05
6.85534e-05
2.27512e-05
6.85529e-05
2.99383e-05
2.99213e-05
6.85436e-05
3.83493e-05
2.27491e-05
2.27512e-05
6.85453e-05
2.99172e-05
2.99369e-05
6.85524e-05
3.83539e-05
2.27509e-05
2.2753e-05
6.85541e-05
2.99329e-05
5.34585e-05
7.46191e-05
7.4616e-05
7.46233e-05
7.46202e-05
5.34588e-05
7.6896e-05
2.83017e-05
7.80509e-05
3.08778e-05
7.80526e-05
3.08808e-05
7.6896e-05
7.36142e-05
4.79778e-05
6.95259e-05
7.36116e-05
4.79663e-05
7.68954e-05
2.82982e-05
7.80517e-05
3.08821e-05
7.68965e-05
7.80516e-05
3.08762e-05
7.36125e-05
4.79692e-05
6.95275e-05
4.79725e-05
7.36148e-05
7.48195e-05
7.4818e-05
7.6901e-05
3.08806e-05
7.80544e-05
2.83032e-05
3.08834e-05
7.80559e-05
7.69012e-05
7.36141e-05
6.95295e-05
4.79921e-05
4.79813e-05
7.36118e-05
7.36128e-05
4.79838e-05
6.95311e-05
4.79866e-05
7.36147e-05
7.69007e-05
2.83e-05
3.08846e-05
7.80554e-05
3.08792e-05
7.80555e-05
7.6902e-05
7.48146e-05
7.48134e-05
5.34645e-05
7.46208e-05
7.46177e-05
7.46197e-05
7.46167e-05
5.34615e-05
2.99182e-05
2.27508e-05
6.85446e-05
3.83456e-05
2.99224e-05
2.27495e-05
6.85441e-05
2.99339e-05
2.27527e-05
6.85534e-05
3.83503e-05
2.9938e-05
2.27514e-05
6.85529e-05
5.34556e-05
7.46188e-05
7.46157e-05
5.34534e-05
7.46231e-05
7.46201e-05
2.99213e-05
6.85438e-05
3.83493e-05
2.27494e-05
2.27513e-05
6.85453e-05
2.99196e-05
2.99369e-05
6.85526e-05
3.83539e-05
2.27513e-05
2.27531e-05
6.85541e-05
2.99353e-05
7.6901e-05
7.80522e-05
3.08827e-05
2.83025e-05
7.80534e-05
3.08855e-05
7.6901e-05
7.36173e-05
6.95325e-05
4.80107e-05
4.79991e-05
7.36151e-05
7.36159e-05
4.80003e-05
6.95341e-05
4.80038e-05
7.36178e-05
7.69007e-05
2.82991e-05
7.80526e-05
3.0887e-05
7.80524e-05
3.08813e-05
7.6902e-05
7.68951e-05
7.8054e-05
2.82986e-05
3.08798e-05
7.68975e-05
7.80522e-05
3.08768e-05
7.36109e-05
4.79715e-05
6.95279e-05
7.36151e-05
4.79747e-05
7.68974e-05
2.83016e-05
7.8051e-05
3.08777e-05
7.68961e-05
7.80528e-05
3.08808e-05
7.36144e-05
4.79701e-05
6.95262e-05
7.36113e-05
4.79684e-05
7.68999e-05
7.80552e-05
3.08839e-05
2.8299e-05
7.69011e-05
7.80539e-05
3.08812e-05
7.36139e-05
6.95339e-05
4.79998e-05
4.80034e-05
7.36177e-05
7.3617e-05
4.80004e-05
6.95323e-05
7.36147e-05
4.79983e-05
7.69031e-05
2.83021e-05
7.80526e-05
3.08824e-05
7.80544e-05
3.08853e-05
7.69017e-05
5.34579e-05
7.46188e-05
7.46215e-05
7.4616e-05
7.46187e-05
5.34468e-05
2.99338e-05
2.27534e-05
3.83528e-05
6.85511e-05
6.85504e-05
2.2752e-05
2.9938e-05
2.99176e-05
2.27507e-05
3.83433e-05
6.85445e-05
2.27493e-05
6.85438e-05
2.99218e-05
2.99366e-05
6.85499e-05
3.83562e-05
2.27516e-05
6.85518e-05
2.27538e-05
2.99326e-05
2.99204e-05
6.85432e-05
3.83471e-05
2.27489e-05
2.27511e-05
6.85452e-05
2.99164e-05
5.34537e-05
7.46153e-05
7.46181e-05
7.46195e-05
7.46223e-05
5.34538e-05
7.48149e-05
7.48137e-05
7.48174e-05
7.48187e-05
5.34512e-05
7.4617e-05
7.46197e-05
5.34513e-05
7.46193e-05
7.46221e-05
2.99392e-05
2.27515e-05
3.83564e-05
6.85498e-05
2.27536e-05
6.85517e-05
2.99323e-05
2.9923e-05
2.27488e-05
3.83471e-05
6.85431e-05
6.85451e-05
2.2751e-05
2.9916e-05
2.99339e-05
6.85524e-05
2.2754e-05
3.83528e-05
2.2752e-05
2.99382e-05
6.85505e-05
2.99176e-05
6.85458e-05
2.27513e-05
3.83433e-05
2.9922e-05
6.85438e-05
2.27493e-05
5.34434e-05
7.46187e-05
7.46214e-05
7.46159e-05
7.46186e-05
5.34434e-05
7.48132e-05
7.48146e-05
7.69007e-05
3.08821e-05
7.80519e-05
2.8302e-05
3.0885e-05
7.80536e-05
7.69007e-05
7.36172e-05
6.9529e-05
4.80071e-05
4.79955e-05
7.3615e-05
7.36158e-05
4.79965e-05
6.95307e-05
4.80002e-05
7.36176e-05
7.69005e-05
2.82986e-05
3.08865e-05
7.80528e-05
3.08808e-05
7.80526e-05
7.69017e-05
7.69001e-05
7.80514e-05
3.0882e-05
2.83018e-05
7.80531e-05
3.08849e-05
7.69e-05
7.36195e-05
6.95297e-05
4.79984e-05
4.79869e-05
7.36173e-05
7.36181e-05
4.79878e-05
6.95312e-05
4.79916e-05
7.36199e-05
7.68998e-05
2.82983e-05
7.80523e-05
3.08864e-05
7.80521e-05
3.08808e-05
7.69011e-05
7.68996e-05
3.08834e-05
7.8055e-05
2.82986e-05
7.69008e-05
3.08807e-05
7.80532e-05
7.36138e-05
6.95305e-05
4.7996e-05
4.79995e-05
7.36176e-05
7.36168e-05
4.79964e-05
6.95287e-05
7.36146e-05
4.79945e-05
7.69027e-05
2.83021e-05
3.08818e-05
7.8052e-05
3.08847e-05
7.80538e-05
7.69014e-05
7.6899e-05
7.80545e-05
3.08833e-05
2.82984e-05
7.69002e-05
7.80527e-05
3.08806e-05
7.36161e-05
6.9531e-05
4.79873e-05
4.79909e-05
7.36199e-05
7.36191e-05
4.79876e-05
6.95294e-05
7.36169e-05
4.79858e-05
7.69021e-05
2.83019e-05
7.80515e-05
3.08818e-05
7.80532e-05
3.08847e-05
7.69008e-05
7.68965e-05
7.80515e-05
2.83028e-05
3.08822e-05
3.08852e-05
7.80532e-05
7.68971e-05
7.36193e-05
4.79982e-05
6.95295e-05
4.79868e-05
7.36171e-05
7.68959e-05
2.82993e-05
3.08868e-05
7.80524e-05
3.08808e-05
7.80523e-05
7.68971e-05
7.3618e-05
4.79879e-05
6.95311e-05
4.79914e-05
7.36198e-05
7.68967e-05
3.08795e-05
7.8054e-05
2.83024e-05
3.08827e-05
7.80555e-05
7.6898e-05
7.36129e-05
6.95318e-05
4.79948e-05
4.79829e-05
7.36103e-05
7.36111e-05
4.79845e-05
6.95333e-05
4.79885e-05
7.36134e-05
7.68962e-05
2.82992e-05
3.08842e-05
7.8055e-05
3.08782e-05
7.80549e-05
7.68973e-05
7.68949e-05
7.80546e-05
2.82993e-05
3.08836e-05
7.68969e-05
3.08806e-05
7.80528e-05
7.36159e-05
4.79874e-05
6.95303e-05
4.79908e-05
7.36197e-05
7.68974e-05
2.83027e-05
3.08817e-05
7.80516e-05
3.08849e-05
7.80534e-05
7.68963e-05
7.3619e-05
4.7988e-05
6.95286e-05
7.36167e-05
4.79859e-05
7.68957e-05
3.08812e-05
7.80569e-05
2.82993e-05
7.68979e-05
3.08781e-05
7.80553e-05
7.36092e-05
6.95332e-05
4.79841e-05
4.79879e-05
7.36134e-05
7.36126e-05
4.79844e-05
6.95315e-05
7.361e-05
4.7982e-05
7.6898e-05
2.83025e-05
3.08793e-05
7.80542e-05
3.08825e-05
7.80558e-05
7.68967e-05
7.4819e-05
7.48176e-05
7.48182e-05
7.48168e-05
5.34546e-05
7.46206e-05
7.46176e-05
5.34551e-05
7.46229e-05
7.46198e-05
2.99238e-05
2.27492e-05
3.83498e-05
6.85435e-05
2.99167e-05
2.27513e-05
6.85453e-05
2.99394e-05
2.27511e-05
3.83544e-05
6.85523e-05
2.99324e-05
2.27531e-05
6.8554e-05
2.99185e-05
6.8546e-05
2.27515e-05
3.83462e-05
2.99229e-05
2.27496e-05
6.85442e-05
2.99341e-05
6.85547e-05
2.27533e-05
3.83508e-05
2.99384e-05
2.27514e-05
6.8553e-05
5.34465e-05
7.46221e-05
7.46191e-05
5.34464e-05
7.46194e-05
7.46164e-05
7.48169e-05
7.48182e-05
7.48161e-05
7.48174e-05
7.48184e-05
7.48171e-05
7.48158e-05
7.48143e-05
5.34635e-05
7.46224e-05
7.46186e-05
7.46199e-05
7.46159e-05
5.34503e-05
2.99192e-05
2.27509e-05
3.83465e-05
6.85475e-05
6.85454e-05
2.27489e-05
2.99256e-05
2.99364e-05
2.27535e-05
3.8349e-05
6.85493e-05
6.85485e-05
2.27521e-05
2.99403e-05
2.99214e-05
6.8545e-05
3.83498e-05
2.27484e-05
6.85466e-05
2.9917e-05
2.27504e-05
2.99394e-05
6.85488e-05
3.83525e-05
2.27514e-05
6.85502e-05
2.99346e-05
2.27537e-05
5.34605e-05
7.46197e-05
7.46152e-05
7.46237e-05
7.46193e-05
5.34625e-05
7.6901e-05
2.83025e-05
7.80525e-05
3.08826e-05
7.80542e-05
3.08854e-05
7.6901e-05
7.36169e-05
4.79998e-05
6.95321e-05
7.36146e-05
4.79983e-05
7.69008e-05
2.82991e-05
7.80556e-05
3.08838e-05
7.80538e-05
7.6902e-05
3.08812e-05
7.36154e-05
4.80011e-05
6.95337e-05
4.80034e-05
7.36162e-05
5.34608e-05
7.46171e-05
7.46199e-05
7.46161e-05
7.46188e-05
5.34573e-05
2.99337e-05
2.27539e-05
6.85524e-05
3.8353e-05
6.85504e-05
2.99378e-05
2.27519e-05
2.99174e-05
2.27512e-05
6.85457e-05
3.83435e-05
2.27491e-05
2.99216e-05
6.85438e-05
5.34543e-05
7.4617e-05
7.46197e-05
7.46195e-05
5.34518e-05
7.46223e-05
2.99367e-05
6.85501e-05
3.83566e-05
2.27517e-05
6.85518e-05
2.27536e-05
2.9935e-05
2.99204e-05
6.85435e-05
3.83473e-05
2.27488e-05
2.27509e-05
6.85451e-05
2.99188e-05
7.48141e-05
7.48123e-05
7.68963e-05
7.80537e-05
3.08802e-05
2.8303e-05
7.80552e-05
3.08833e-05
7.68961e-05
7.36155e-05
6.95258e-05
4.79887e-05
4.79768e-05
7.36128e-05
7.36137e-05
4.79783e-05
6.95275e-05
4.79823e-05
7.36159e-05
7.68957e-05
2.82998e-05
7.80547e-05
3.08848e-05
7.80546e-05
3.08789e-05
7.68968e-05
7.69007e-05
2.8302e-05
3.08832e-05
7.80525e-05
3.08847e-05
7.80539e-05
7.69007e-05
7.36167e-05
4.79962e-05
6.95286e-05
4.79946e-05
7.36145e-05
7.69005e-05
2.82986e-05
3.08832e-05
7.80552e-05
3.08805e-05
7.69017e-05
7.80534e-05
7.36153e-05
4.79973e-05
6.95303e-05
4.79996e-05
7.3616e-05
7.69001e-05
2.83019e-05
7.8052e-05
3.08833e-05
7.80534e-05
3.08848e-05
7.69001e-05
7.3619e-05
4.79875e-05
6.95292e-05
7.36168e-05
4.79858e-05
7.68998e-05
2.82985e-05
7.80546e-05
3.08832e-05
7.6901e-05
7.80528e-05
3.08806e-05
7.36176e-05
4.79886e-05
6.95308e-05
4.79909e-05
7.36183e-05
5.34659e-05
7.46188e-05
7.46222e-05
7.46162e-05
7.46196e-05
5.34519e-05
2.9935e-05
2.2752e-05
3.83462e-05
6.85506e-05
6.85504e-05
2.27506e-05
2.99392e-05
2.99189e-05
2.27516e-05
3.83474e-05
6.85453e-05
2.27503e-05
6.85444e-05
2.99232e-05
2.99376e-05
6.85501e-05
3.83499e-05
2.27501e-05
6.85516e-05
2.27523e-05
2.99334e-05
2.99219e-05
6.85435e-05
3.8351e-05
2.275e-05
2.27521e-05
6.85457e-05
2.99177e-05
5.3464e-05
7.46157e-05
7.46192e-05
7.46199e-05
7.46233e-05
5.34667e-05
7.4817e-05
7.48162e-05
7.68964e-05
2.83026e-05
3.08817e-05
7.80517e-05
3.08848e-05
7.80535e-05
7.68964e-05
7.36189e-05
4.79874e-05
6.95286e-05
4.79858e-05
7.36167e-05
7.68958e-05
2.82992e-05
3.08833e-05
7.80547e-05
3.08804e-05
7.68969e-05
7.80529e-05
7.36175e-05
4.79875e-05
6.95303e-05
4.79908e-05
7.36193e-05
7.68968e-05
2.83025e-05
3.08795e-05
7.80545e-05
3.08826e-05
7.8056e-05
7.68967e-05
7.36125e-05
4.7984e-05
6.95314e-05
7.36099e-05
4.79819e-05
7.68962e-05
2.82994e-05
3.0881e-05
7.80572e-05
7.68973e-05
3.0878e-05
7.80556e-05
7.36107e-05
4.79852e-05
6.9533e-05
4.79878e-05
7.36113e-05
7.48177e-05
7.48166e-05
7.48169e-05
7.48158e-05
2.3392e-05
2.33922e-05
2.31289e-05
2.33927e-05
2.33929e-05
2.35711e-05
2.35713e-05
2.22211e-05
2.13878e-05
2.13862e-05
2.16499e-05
2.13888e-05
2.13871e-05
2.22234e-05
2.33918e-05
2.3392e-05
2.31283e-05
2.33921e-05
2.33923e-05
2.3571e-05
2.35711e-05
2.22211e-05
2.13878e-05
2.13872e-05
2.16499e-05
2.22235e-05
2.13887e-05
2.13881e-05
2.22221e-05
2.13878e-05
2.13884e-05
2.16505e-05
2.13893e-05
2.13887e-05
2.22244e-05
2.22238e-05
2.16465e-05
2.13877e-05
2.13894e-05
2.13878e-05
2.139e-05
2.22228e-05
2.22229e-05
2.16458e-05
2.1388e-05
2.13875e-05
2.22219e-05
2.13893e-05
2.13883e-05
2.22228e-05
2.13881e-05
2.13895e-05
2.16507e-05
2.1389e-05
2.13912e-05
2.22252e-05
2.22222e-05
2.13892e-05
2.13906e-05
2.16506e-05
2.13905e-05
2.22245e-05
2.13892e-05
2.22219e-05
2.13872e-05
2.13884e-05
2.16501e-05
2.13893e-05
2.13881e-05
2.22242e-05
2.3392e-05
2.33922e-05
2.31291e-05
2.33927e-05
2.33929e-05
2.35712e-05
2.35714e-05
2.3392e-05
2.3392e-05
2.3129e-05
2.33927e-05
2.33928e-05
2.35712e-05
2.35713e-05
2.33919e-05
2.3392e-05
2.31289e-05
2.33926e-05
2.33927e-05
2.35711e-05
2.35711e-05
2.31288e-05
2.33919e-05
2.33922e-05
2.33925e-05
2.33928e-05
2.35718e-05
2.35717e-05
2.31288e-05
2.33922e-05
2.33924e-05
2.33923e-05
2.33926e-05
2.35719e-05
2.35718e-05
2.31286e-05
2.33923e-05
2.33923e-05
2.33924e-05
2.33924e-05
2.35718e-05
2.35718e-05
2.31285e-05
2.33921e-05
2.33922e-05
2.33922e-05
2.33923e-05
2.35717e-05
2.35717e-05
2.12441e-05
2.13245e-05
2.13348e-05
2.10649e-05
2.13259e-05
2.13328e-05
2.12473e-05
2.11874e-05
2.15087e-05
2.77208e-05
2.31994e-05
2.15085e-05
2.31965e-05
2.11867e-05
2.11879e-05
2.31962e-05
2.77274e-05
2.15072e-05
2.15088e-05
2.31995e-05
2.11889e-05
2.12468e-05
2.10646e-05
2.1326e-05
2.1331e-05
2.13254e-05
2.13349e-05
2.12449e-05
2.12441e-05
2.13348e-05
2.10654e-05
2.13249e-05
2.13328e-05
2.13263e-05
2.12473e-05
2.11876e-05
2.15093e-05
2.31994e-05
2.77224e-05
2.31966e-05
2.11868e-05
2.15093e-05
2.12467e-05
2.10651e-05
2.1331e-05
2.13262e-05
2.13349e-05
2.13258e-05
2.12448e-05
2.11881e-05
2.31963e-05
2.7729e-05
2.15077e-05
2.31995e-05
2.1189e-05
2.15093e-05
2.22239e-05
2.1646e-05
2.13884e-05
2.13869e-05
2.13887e-05
2.13869e-05
2.22218e-05
2.33929e-05
2.3393e-05
2.31294e-05
2.33928e-05
2.33931e-05
2.35713e-05
2.35714e-05
2.33929e-05
2.3393e-05
2.31292e-05
2.33929e-05
2.33929e-05
2.35712e-05
2.35713e-05
2.33927e-05
2.33928e-05
2.31291e-05
2.33928e-05
2.33928e-05
2.35711e-05
2.35711e-05
2.1244e-05
2.10647e-05
2.13246e-05
2.13352e-05
2.13257e-05
2.13327e-05
2.12473e-05
2.11873e-05
2.15085e-05
2.3199e-05
2.77207e-05
2.11866e-05
2.15084e-05
2.31961e-05
2.12467e-05
2.10648e-05
2.13258e-05
2.1331e-05
2.12448e-05
2.13253e-05
2.13349e-05
2.11876e-05
2.31959e-05
2.77273e-05
2.15073e-05
2.15086e-05
2.31991e-05
2.1189e-05
2.1244e-05
2.10645e-05
2.13343e-05
2.13242e-05
2.13326e-05
2.13259e-05
2.12473e-05
2.11876e-05
2.15093e-05
2.31989e-05
2.77224e-05
2.11868e-05
2.15093e-05
2.31961e-05
2.12467e-05
2.10641e-05
2.1331e-05
2.1326e-05
2.12448e-05
2.13348e-05
2.13255e-05
2.11882e-05
2.31959e-05
2.77287e-05
2.15081e-05
2.15096e-05
2.31991e-05
2.11888e-05
2.2224e-05
2.1646e-05
2.13888e-05
2.13882e-05
2.13885e-05
2.13879e-05
2.22222e-05
2.12434e-05
2.13346e-05
2.10628e-05
2.13219e-05
2.13232e-05
2.13325e-05
2.12466e-05
2.11863e-05
2.15075e-05
2.31953e-05
2.77225e-05
2.31925e-05
2.11856e-05
2.15075e-05
2.1246e-05
2.10615e-05
2.13229e-05
2.13302e-05
2.13226e-05
2.13346e-05
2.12441e-05
2.11868e-05
2.31925e-05
2.77297e-05
2.15065e-05
2.31957e-05
2.11878e-05
2.1508e-05
2.12435e-05
2.13225e-05
2.13345e-05
2.10626e-05
2.13238e-05
2.13322e-05
2.12468e-05
2.1187e-05
2.15079e-05
2.77238e-05
2.31999e-05
2.3197e-05
2.15077e-05
2.11862e-05
2.11875e-05
2.31967e-05
2.77301e-05
2.15062e-05
2.31999e-05
2.11884e-05
2.15079e-05
2.12461e-05
2.10615e-05
2.13238e-05
2.13299e-05
2.13234e-05
2.13342e-05
2.12442e-05
2.12469e-05
2.1333e-05
2.10646e-05
2.13242e-05
2.12444e-05
2.13232e-05
2.13347e-05
2.11841e-05
2.1507e-05
2.31922e-05
2.77287e-05
2.31955e-05
2.11871e-05
2.15084e-05
2.12449e-05
2.10642e-05
2.13226e-05
2.13335e-05
2.13238e-05
2.13316e-05
2.12472e-05
2.11862e-05
2.31957e-05
2.15091e-05
2.77226e-05
2.11853e-05
2.31926e-05
2.15077e-05
2.1247e-05
2.13247e-05
2.13332e-05
2.10647e-05
2.12445e-05
2.13238e-05
2.1335e-05
2.11848e-05
2.15072e-05
2.77301e-05
2.31964e-05
2.31997e-05
2.15085e-05
2.11877e-05
2.11869e-05
2.31998e-05
2.15088e-05
2.77239e-05
2.1186e-05
2.31967e-05
2.15076e-05
2.12452e-05
2.10643e-05
2.13236e-05
2.13335e-05
2.13246e-05
2.13316e-05
2.12475e-05
2.2225e-05
2.16467e-05
2.13879e-05
2.13891e-05
2.13893e-05
2.13882e-05
2.22228e-05
2.22222e-05
2.16508e-05
2.13892e-05
2.13914e-05
2.13887e-05
2.22245e-05
2.1391e-05
2.12434e-05
2.13346e-05
2.13223e-05
2.10629e-05
2.13324e-05
2.13237e-05
2.12466e-05
2.11866e-05
2.15072e-05
2.77216e-05
2.31984e-05
2.15072e-05
2.31955e-05
2.11859e-05
2.11871e-05
2.31952e-05
2.77279e-05
2.15057e-05
2.15073e-05
2.31985e-05
2.1188e-05
2.1246e-05
2.10615e-05
2.13302e-05
2.13236e-05
2.13345e-05
2.13232e-05
2.1244e-05
2.12476e-05
2.13267e-05
2.13333e-05
2.10654e-05
2.12451e-05
2.13258e-05
2.13352e-05
2.11853e-05
2.15078e-05
2.77274e-05
2.3196e-05
2.11882e-05
2.15093e-05
2.31994e-05