/*--------------------------------*- C++ -*----------------------------------*\
| =========                 |                                                 |
| \\      /  F ield         | OpenFOAM: The Open Source CFD Toolbox           |
|  \\    /   O peration     | Version:  v1912                                 |
|   \\  /    A nd           | Website:  www.openfoam.com                      |
|    \\/     M anipulation  |                                                 |
\*---------------------------------------------------------------------------*/
FoamFile
{
    version     2.0;
    format      ascii;
    class       volScalarField;
    location    "40";
    object      nut;
}
// * * * * * * * * * * * * * * * * * * * * * * * * * * * * * * * * * * * * * //

dimensions      [0 2 -1 0 0 0 0];


internalField   nonuniform List<scalar> 
57566
(
2.44815e-05
7.54403e-05
0.000171073
0.000191753
4.61555e-05
0.000141735
3.88176e-05
3.8815e-05
2.44844e-05
2.44836e-05
0.00014156
3.88093e-05
3.881e-05
3.8714e-05
4.93682e-05
3.87155e-05
4.93715e-05
7.54008e-05
0.000171062
4.61409e-05
0.000191756
7.54009e-05
0.000171054
4.6146e-05
0.000191753
2.4485e-05
0.000141564
3.88094e-05
3.8808e-05
2.44848e-05
3.87224e-05
4.93619e-05
7.54331e-05
0.000171043
0.000191749
4.6146e-05
3.87195e-05
4.93673e-05
7.54141e-05
0.000171082
4.6143e-05
0.000191761
3.87188e-05
4.93624e-05
7.54229e-05
0.000171042
0.000191749
4.61401e-05
7.54338e-05
0.000171053
0.000191753
4.61544e-05
3.87188e-05
4.93661e-05
7.54244e-05
0.000171083
4.6141e-05
0.000191758
3.87162e-05
4.93692e-05
7.54235e-05
0.000171053
0.000191752
4.61488e-05
3.87136e-05
4.93666e-05
0.000141745
3.88064e-05
3.88187e-05
2.44844e-05
2.44813e-05
0.000141561
3.88042e-05
3.88168e-05
2.4484e-05
7.54347e-05
0.000171074
0.000191754
4.61532e-05
3.87235e-05
4.93658e-05
3.8725e-05
4.93662e-05
7.54292e-05
0.000171073
0.000191753
4.61499e-05
7.54238e-05
0.000171074
0.000191754
4.61474e-05
3.87193e-05
4.93662e-05
3.87196e-05
4.93667e-05
2.44842e-05
2.44832e-05
0.000141551
3.88159e-05
3.88132e-05
2.44838e-05
2.44828e-05
2.44817e-05
4.07644e-05
2.18683e-05
2.18658e-05
2.18681e-05
2.18656e-05
4.07652e-05
4.51567e-05
4.70514e-05
3.88107e-05
6.0703e-05
6.06819e-05
4.70523e-05
4.5169e-05
4.51613e-05
4.7042e-05
3.88081e-05
6.06922e-05
6.06717e-05
4.70428e-05
4.51732e-05
2.44842e-05
2.44835e-05
4.07624e-05
2.18689e-05
2.18653e-05
4.07584e-05
2.18687e-05
2.18658e-05
4.51722e-05
4.70528e-05
6.06824e-05
3.88155e-05
4.51599e-05
4.70517e-05
6.07008e-05
4.51723e-05
4.70415e-05
6.06694e-05
3.88173e-05
4.51592e-05
4.7041e-05
6.06932e-05
3.79636e-05
4.28443e-05
3.8003e-05
3.8719e-05
3.79644e-05
4.28436e-05
3.80134e-05
2.05804e-05
4.29053e-05
4.93672e-05
2.05805e-05
4.29136e-05
3.79662e-05
4.28446e-05
3.80137e-05
3.87204e-05
3.79669e-05
4.28438e-05
3.80237e-05
2.0582e-05
4.29462e-05
4.93705e-05
2.05819e-05
4.29532e-05
2.44848e-05
4.07672e-05
2.18663e-05
2.18682e-05
4.07628e-05
2.18663e-05
2.18683e-05
4.51703e-05
4.70423e-05
6.06667e-05
3.88159e-05
6.06883e-05
4.51569e-05
4.70414e-05
4.51731e-05
4.70518e-05
6.06854e-05
3.8815e-05
4.51603e-05
4.70509e-05
6.07065e-05
2.44846e-05
3.79634e-05
3.87191e-05
4.28438e-05
3.80137e-05
4.28446e-05
3.80042e-05
3.79629e-05
2.05804e-05
4.29273e-05
4.93629e-05
4.29214e-05
2.05804e-05
3.7966e-05
3.80102e-05
4.28446e-05
3.87231e-05
3.79666e-05
3.80202e-05
4.28439e-05
2.05818e-05
4.29225e-05
4.93663e-05
2.05818e-05
4.293e-05
3.79614e-05
4.28437e-05
3.80118e-05
3.8723e-05
3.79625e-05
4.28429e-05
3.80169e-05
2.05798e-05
4.29234e-05
4.93614e-05
2.05797e-05
4.29267e-05
3.79653e-05
3.87158e-05
4.28433e-05
3.80196e-05
4.28442e-05
3.80105e-05
3.79648e-05
2.05819e-05
4.29415e-05
4.9367e-05
4.29366e-05
2.05819e-05
3.79668e-05
3.80139e-05
4.28442e-05
3.87203e-05
3.79674e-05
3.80239e-05
4.28434e-05
2.05828e-05
4.29454e-05
4.93682e-05
2.05827e-05
4.29522e-05
3.79634e-05
4.28437e-05
3.8018e-05
3.87179e-05
3.79643e-05
4.28429e-05
3.80228e-05
2.05812e-05
4.29375e-05
4.93656e-05
2.05812e-05
4.29403e-05
4.07621e-05
2.18652e-05
2.18682e-05
2.1865e-05
2.1868e-05
4.07626e-05
4.51564e-05
4.70398e-05
3.87991e-05
6.06866e-05
4.70407e-05
6.06648e-05
4.51691e-05
4.51562e-05
4.70517e-05
3.88121e-05
6.07072e-05
6.06858e-05
4.70526e-05
4.5169e-05
2.44845e-05
2.4481e-05
4.07706e-05
2.18645e-05
2.18675e-05
4.07671e-05
2.18646e-05
2.18676e-05
4.51735e-05
4.70404e-05
6.06797e-05
3.88079e-05
6.06916e-05
4.5167e-05
4.70395e-05
4.51732e-05
4.70522e-05
6.07004e-05
3.88216e-05
4.51667e-05
4.70514e-05
6.0712e-05
2.44838e-05
3.79656e-05
3.87202e-05
3.80208e-05
4.28439e-05
3.80117e-05
4.28448e-05
3.7965e-05
2.0582e-05
4.29412e-05
4.93667e-05
4.29363e-05
2.0582e-05
3.79673e-05
3.87237e-05
3.80213e-05
4.2844e-05
3.80122e-05
4.28449e-05
3.79668e-05
2.05825e-05
4.29496e-05
4.93671e-05
4.29447e-05
2.05825e-05
3.79636e-05
3.80192e-05
4.28438e-05
3.87233e-05
3.79646e-05
3.8024e-05
4.2843e-05
2.05814e-05
4.29372e-05
4.93653e-05
2.05813e-05
4.29399e-05
3.79654e-05
3.80197e-05
4.28439e-05
3.87235e-05
3.79664e-05
3.80245e-05
4.28431e-05
2.05818e-05
4.29455e-05
4.93657e-05
2.05818e-05
4.29485e-05
2.44843e-05
2.44833e-05
4.07701e-05
2.18676e-05
2.18651e-05
4.07678e-05
2.18677e-05
2.18653e-05
4.51728e-05
4.7052e-05
6.06961e-05
3.88209e-05
4.51666e-05
6.07076e-05
4.70511e-05
4.51769e-05
4.70425e-05
6.06855e-05
3.88182e-05
4.51709e-05
6.06969e-05
4.70417e-05
2.44836e-05
2.44826e-05
0.000207358
0.000217755
0.000217758
0.000223945
0.000207359
0.000217755
0.000217758
0.000223944
0.000207365
0.000217762
0.000217766
0.000223952
0.000207365
0.000217758
0.000217762
0.000223948
0.000207358
0.000217755
0.000217758
0.000223945
0.000207359
0.000217755
0.000217758
0.000223944
0.000121584
7.54176e-05
0.000128713
6.90324e-05
0.000128602
6.90097e-05
0.000121714
0.000104257
5.55421e-05
4.61463e-05
8.37352e-05
8.36872e-05
5.5508e-05
0.000104363
7.13503e-05
0.000141524
0.000107165
0.000107151
0.000107114
0.000107099
7.13737e-05
7.13835e-05
0.000141756
0.000107124
0.00010711
7.13603e-05
0.000107176
0.000107165
0.000121712
6.89975e-05
0.000128615
7.54251e-05
0.000121577
6.902e-05
0.000128714
0.000104363
5.55003e-05
8.36658e-05
4.61506e-05
8.37135e-05
0.000104251
5.55325e-05
0.000121711
6.89998e-05
0.000128617
7.54249e-05
0.000121577
6.90223e-05
0.000128714
0.000104359
5.5504e-05
8.36622e-05
4.61553e-05
0.000104247
5.55366e-05
8.37109e-05
7.13851e-05
0.00014176
0.000107109
0.000107128
0.000107164
7.13622e-05
0.000107183
0.000121577
7.54091e-05
0.000128713
6.90238e-05
0.000128601
6.9002e-05
0.000121707
0.00010424
5.55332e-05
4.61356e-05
8.37116e-05
5.55002e-05
0.000104346
8.36629e-05
0.000121708
6.89988e-05
0.000128618
7.54383e-05
0.000121574
6.90221e-05
0.000128717
0.000104363
5.55023e-05
8.36647e-05
4.61533e-05
8.37145e-05
0.000104252
5.55353e-05
0.000121702
0.000128612
6.90092e-05
7.54464e-05
0.000121571
0.000128711
6.90315e-05
0.000104334
5.552e-05
8.36726e-05
4.61494e-05
0.000104226
5.55367e-05
8.37212e-05
0.000121582
7.54105e-05
0.00012872
6.90253e-05
0.000128608
6.90033e-05
0.000121712
0.000104249
5.55381e-05
4.6145e-05
8.37273e-05
8.3679e-05
5.55038e-05
0.000104354
0.000121715
6.90093e-05
0.00012864
7.54481e-05
0.000121579
6.90331e-05
0.00012874
0.000104369
5.5505e-05
8.36771e-05
4.61513e-05
0.000104256
8.37273e-05
5.5539e-05
0.000121707
0.00012862
6.90101e-05
7.54466e-05
0.000121577
0.000128719
6.90328e-05
0.000104342
5.55243e-05
8.36886e-05
4.61579e-05
0.000104235
5.55415e-05
8.37368e-05
7.13499e-05
0.000141533
0.000107155
0.000107175
0.000107123
0.000107102
7.13735e-05
7.13688e-05
0.000141746
0.000107118
0.000107138
0.000107172
7.13479e-05
0.000107191
0.000121578
7.54105e-05
0.000128715
6.90264e-05
0.000128603
6.9004e-05
0.000121709
0.000104247
5.55401e-05
4.61436e-05
8.37199e-05
8.3671e-05
5.55067e-05
0.000104353
0.000121709
0.000128613
6.90174e-05
7.54526e-05
0.000121577
0.000128713
6.90405e-05
0.000104351
5.55283e-05
8.36959e-05
4.61589e-05
0.000104243
8.37438e-05
5.55454e-05
0.000121703
0.000128613
6.90109e-05
7.5448e-05
0.000121572
0.000128713
6.90338e-05
0.000104341
5.55266e-05
8.36806e-05
4.61566e-05
0.000104232
5.55436e-05
8.37294e-05
7.13685e-05
0.000141736
0.000107128
0.000107114
7.13477e-05
0.000107181
0.000107167
2.44821e-05
2.448e-05
0.00014142
3.88456e-05
3.88405e-05
3.87074e-05
4.9368e-05
3.87093e-05
7.53114e-05
0.000170907
4.61346e-05
0.000191641
7.53128e-05
0.000191642
3.87136e-05
4.93653e-05
7.53113e-05
0.000170928
4.61287e-05
0.000191638
3.87128e-05
4.93615e-05
7.53097e-05
0.000170903
0.000191631
4.61236e-05
2.44786e-05
0.000141418
3.88341e-05
3.88472e-05
2.4481e-05
7.5312e-05
0.00017094
0.000191638
4.61334e-05
7.53092e-05
0.000191642
3.87074e-05
4.93649e-05
3.87119e-05
2.44823e-05
2.44801e-05
4.08348e-05
2.18662e-05
2.18634e-05
4.08349e-05
2.18664e-05
2.18636e-05
4.51729e-05
4.70494e-05
6.06298e-05
3.88443e-05
4.51726e-05
4.70493e-05
6.06489e-05
4.51679e-05
4.70367e-05
6.06027e-05
3.88392e-05
4.51678e-05
4.70368e-05
6.06219e-05
3.79582e-05
4.28384e-05
3.80322e-05
3.87176e-05
3.79584e-05
4.28385e-05
3.80309e-05
2.05787e-05
4.29688e-05
4.93677e-05
2.05786e-05
4.2967e-05
3.79607e-05
4.28388e-05
3.80408e-05
3.87176e-05
3.79609e-05
4.28389e-05
3.80383e-05
3.79604e-05
3.80389e-05
4.28385e-05
3.87226e-05
3.79605e-05
3.80371e-05
4.28384e-05
2.05797e-05
4.29847e-05
4.93649e-05
2.05795e-05
4.29824e-05
3.79573e-05
4.28383e-05
3.8033e-05
3.87225e-05
3.79574e-05
4.28382e-05
3.80317e-05
2.05784e-05
4.29754e-05
4.9361e-05
2.05783e-05
4.29738e-05
2.44787e-05
4.08339e-05
2.1863e-05
2.1866e-05
4.0834e-05
2.18632e-05
2.18662e-05
4.51767e-05
4.7037e-05
6.06094e-05
3.88338e-05
6.06287e-05
4.51764e-05
4.70369e-05
4.51769e-05
4.70491e-05
6.06315e-05
3.88458e-05
4.51762e-05
4.70488e-05
6.06506e-05
2.44812e-05
3.79581e-05
3.80363e-05
4.28375e-05
3.87171e-05
3.79583e-05
3.80351e-05
4.28373e-05
2.05799e-05
4.29907e-05
4.93645e-05
2.05798e-05
4.29878e-05
3.796e-05
3.80332e-05
4.28384e-05
3.87207e-05
3.79601e-05
3.80314e-05
4.28384e-05
0.000207277
0.000217702
0.000217706
0.000223917
0.000217703
0.000223916
0.000207273
0.0002177
0.0002177
0.000223912
0.000217703
0.000223914
7.1291e-05
0.000141613
0.000106982
0.000106958
7.12693e-05
0.000107038
0.000107014
0.00012158
6.89156e-05
0.000128466
7.534e-05
0.000121442
6.89455e-05
0.000128578
0.000104226
5.5461e-05
8.35755e-05
4.61439e-05
8.3631e-05
0.000104112
5.54848e-05
0.000121586
6.892e-05
0.000128469
7.53414e-05
0.000121444
6.89499e-05
0.000128581
0.000121575
6.89101e-05
0.000128476
7.53381e-05
0.000121437
6.89404e-05
0.000128586
0.000104218
5.54592e-05
8.35469e-05
4.61379e-05
8.36028e-05
0.000104103
5.54829e-05
0.000121568
0.000128477
6.89064e-05
7.53342e-05
0.000121431
0.000128586
6.89363e-05
0.000104209
5.5456e-05
8.35426e-05
4.6133e-05
0.000104094
5.54795e-05
8.36e-05
7.12943e-05
0.000141612
0.000106963
0.000106983
0.000107019
7.12728e-05
0.000107038
0.000121575
0.000128477
6.89148e-05
7.53407e-05
0.000121437
0.000128587
6.89449e-05
0.000104228
5.54674e-05
8.35756e-05
4.61427e-05
0.000104112
8.36313e-05
5.54912e-05
0.000121578
0.000128466
6.89144e-05
7.53374e-05
0.000121436
0.000128576
6.89447e-05
0.000207275
0.000170946
0.00017093
0.000141413
0.000207275
0.000170943
0.000170938
0.000141415
0.00017091
0.000170911
0.000170899
0.000170912
0.000141422
0.000141622
0.000170914
0.000170945
0.000170915
0.000170936
0.00017094
0.000170936
0.000141608
0.000141414
0.000170904
0.000170917
0.000141439
0.000170931
0.000170907
0.000170919
0.000141409
0.00017094
3.87104e-05
4.93682e-05
3.8707e-05
4.93662e-05
2.44812e-05
2.44815e-05
0.000207274
0.000207266
0.00020727
0.000207277
0.000207275
0.000207269
0.00020727
7.53451e-05
4.61303e-05
0.000191639
0.000170951
4.61388e-05
0.000191643
7.53148e-05
7.53402e-05
0.000191636
4.61339e-05
0.000170934
0.00019164
7.53111e-05
4.61419e-05
3.88468e-05
3.8844e-05
0.000141616
3.88468e-05
3.8844e-05
3.87117e-05
4.93674e-05
3.87075e-05
4.93674e-05
2.44812e-05
2.44814e-05
3.87176e-05
4.93655e-05
4.93646e-05
3.87137e-05
0.000207277
0.000207271
0.000207272
7.53456e-05
4.61301e-05
0.000191638
0.000170946
7.53147e-05
4.61387e-05
0.000191641
2.44784e-05
2.44788e-05
7.53377e-05
0.000191635
4.61334e-05
0.000170939
7.53094e-05
0.000191636
4.61419e-05
3.88467e-05
3.88438e-05
0.000141621
3.88448e-05
3.88419e-05
3.87122e-05
4.93697e-05
4.9369e-05
3.87081e-05
7.53348e-05
4.6135e-05
0.000191635
0.000170901
0.000191638
7.53021e-05
4.61407e-05
7.53343e-05
4.61342e-05
0.000191633
0.000170916
4.61424e-05
0.000191637
7.5301e-05
3.87064e-05
4.93668e-05
3.87118e-05
4.93669e-05
3.87089e-05
4.9369e-05
4.93698e-05
3.87139e-05
7.53247e-05
0.0001709
4.61417e-05
0.000191635
0.000191636
7.53357e-05
4.61339e-05
7.53247e-05
0.000170914
4.61424e-05
0.000191635
4.61355e-05
0.000191635
7.53364e-05
3.88487e-05
3.88426e-05
0.000141626
3.88479e-05
3.88421e-05
2.44815e-05
2.44819e-05
2.44814e-05
2.44815e-05
0.000141443
3.88483e-05
3.88424e-05
3.88442e-05
3.88383e-05
2.44818e-05
2.44819e-05
3.87116e-05
4.93679e-05
4.93672e-05
3.87075e-05
7.53367e-05
0.000191634
4.61326e-05
0.00017092
0.000191638
4.61409e-05
7.53033e-05
3.8711e-05
4.93656e-05
4.9365e-05
3.87067e-05
7.53311e-05
0.00017095
4.61388e-05
0.000191639
4.61318e-05
0.000191642
7.53398e-05
3.87074e-05
4.93671e-05
4.9368e-05
3.87116e-05
7.53262e-05
0.000170917
0.000191635
4.6141e-05
0.000191636
4.6134e-05
7.53361e-05
3.87069e-05
4.93649e-05
4.93657e-05
3.87113e-05
7.53373e-05
0.000191634
4.61305e-05
0.000170941
0.000191638
4.61387e-05
7.53031e-05
3.87121e-05
4.93651e-05
3.87081e-05
4.93642e-05
3.87157e-05
4.93652e-05
4.93646e-05
3.87118e-05
7.53252e-05
0.000170934
0.000191636
4.61419e-05
0.00019164
7.53348e-05
4.61345e-05
7.5326e-05
0.000170938
0.000191635
4.61388e-05
0.000191637
4.61319e-05
7.5335e-05
3.87079e-05
4.93643e-05
3.87121e-05
4.93649e-05
3.8712e-05
4.93646e-05
4.93653e-05
3.87159e-05
2.44808e-05
2.44811e-05
2.44798e-05
2.44801e-05
0.000141434
3.88477e-05
3.88447e-05
3.88429e-05
3.88403e-05
2.44811e-05
2.44812e-05
2.448e-05
2.44801e-05
2.44816e-05
2.44823e-05
2.44801e-05
2.44801e-05
3.88458e-05
3.88423e-05
0.000141613
3.88462e-05
3.88413e-05
3.87137e-05
4.93697e-05
3.87098e-05
4.93689e-05
7.53367e-05
4.61352e-05
0.00019164
0.000170906
7.53192e-05
4.61429e-05
0.00019164
7.53378e-05
4.61355e-05
0.000191639
0.000170918
7.53196e-05
4.61429e-05
0.000191638
3.88446e-05
3.88386e-05
0.000141624
3.88469e-05
3.88419e-05
2.44818e-05
2.44816e-05
7.53357e-05
4.61291e-05
0.000191636
0.000170927
4.61372e-05
0.000191637
7.53049e-05
3.87168e-05
4.93615e-05
4.93609e-05
3.8713e-05
7.53327e-05
0.000191628
4.61241e-05
0.000170902
0.000191629
4.61324e-05
7.53029e-05
3.87172e-05
4.93679e-05
3.87074e-05
4.93671e-05
7.53357e-05
0.000191638
4.61341e-05
0.00017092
7.53186e-05
0.000191639
4.61414e-05
3.8717e-05
4.93657e-05
3.87071e-05
4.93649e-05
3.88355e-05
3.88482e-05
0.00014161
3.88353e-05
3.8848e-05
2.44806e-05
2.44811e-05
7.5334e-05
0.000191639
4.61319e-05
0.000170941
7.53179e-05
0.000191639
4.61392e-05
3.87118e-05
4.9365e-05
3.87078e-05
4.93643e-05
3.87159e-05
4.93653e-05
3.87122e-05
4.93645e-05
2.4481e-05
2.4481e-05
2.448e-05
2.44799e-05
3.79577e-05
4.28377e-05
3.87062e-05
3.80335e-05
4.28384e-05
3.80303e-05
3.79581e-05
2.05786e-05
4.2972e-05
4.93675e-05
4.29674e-05
2.05785e-05
3.79578e-05
3.87113e-05
4.28384e-05
3.80316e-05
4.28384e-05
3.80324e-05
3.79582e-05
2.05784e-05
4.29696e-05
4.93673e-05
4.29674e-05
2.05788e-05
2.44817e-05
2.44814e-05
4.08434e-05
2.18668e-05
2.18643e-05
2.18664e-05
2.18639e-05
4.08376e-05
4.5179e-05
6.06271e-05
3.88452e-05
4.70486e-05
6.06458e-05
4.70484e-05
4.51748e-05
4.51831e-05
6.06158e-05
3.88425e-05
4.70391e-05
6.06341e-05
4.70389e-05
4.5179e-05
4.51743e-05
4.70482e-05
3.88445e-05
6.06417e-05
6.06314e-05
4.70488e-05
4.51789e-05
4.51786e-05
4.70387e-05
3.88417e-05
6.06301e-05
6.062e-05
4.70393e-05
4.5183e-05
4.08433e-05
2.18663e-05
2.18638e-05
2.18669e-05
2.18644e-05
4.08407e-05
3.79581e-05
3.87076e-05
4.28382e-05
3.80343e-05
4.28387e-05
3.80311e-05
3.79582e-05
2.0579e-05
4.29728e-05
4.93671e-05
2.05786e-05
4.29679e-05
3.7958e-05
3.87119e-05
4.28385e-05
3.80321e-05
3.79583e-05
4.28384e-05
3.8033e-05
2.05788e-05
4.29694e-05
4.93681e-05
4.29671e-05
2.05791e-05
2.44817e-05
2.44814e-05
3.79604e-05
3.8041e-05
4.28383e-05
3.87137e-05
3.8038e-05
4.28387e-05
3.79606e-05
2.05799e-05
4.93647e-05
4.29893e-05
4.29842e-05
2.05796e-05
2.05797e-05
4.29854e-05
4.93652e-05
4.29834e-05
2.058e-05
3.79604e-05
3.87178e-05
3.80391e-05
4.28386e-05
3.80398e-05
4.28387e-05
3.79607e-05
2.44789e-05
2.44787e-05
4.08464e-05
2.18665e-05
2.1864e-05
2.18663e-05
2.18639e-05
4.08458e-05
4.51788e-05
6.06275e-05
4.70486e-05
3.88452e-05
4.51745e-05
6.06463e-05
4.70484e-05
4.51829e-05
6.06164e-05
4.70391e-05
3.88423e-05
4.51787e-05
6.0635e-05
4.70389e-05
4.08402e-05
2.18662e-05
2.18637e-05
4.08346e-05
2.18669e-05
2.18644e-05
4.51745e-05
4.70483e-05
3.88445e-05
6.06433e-05
6.06321e-05
4.70488e-05
4.51748e-05
4.51787e-05
4.70388e-05
3.88416e-05
6.06272e-05
6.0621e-05
4.70393e-05
4.51788e-05
3.79607e-05
4.28383e-05
3.80439e-05
3.87081e-05
4.28389e-05
3.8041e-05
3.79606e-05
2.05801e-05
4.93691e-05
4.30083e-05
4.30024e-05
2.05798e-05
2.05799e-05
4.3002e-05
4.93697e-05
4.30008e-05
2.05802e-05
3.79606e-05
3.87124e-05
4.28387e-05
3.80423e-05
4.28387e-05
3.80429e-05
3.79609e-05
3.79575e-05
4.28386e-05
3.87109e-05
3.8029e-05
3.7958e-05
4.28381e-05
3.80326e-05
2.05782e-05
4.29735e-05
4.93675e-05
2.05791e-05
4.29713e-05
3.79583e-05
3.87076e-05
4.28383e-05
3.80343e-05
3.79582e-05
4.28385e-05
3.80311e-05
2.05787e-05
4.29665e-05
4.93664e-05
2.05783e-05
4.29711e-05
3.79604e-05
4.28392e-05
3.80395e-05
3.87132e-05
3.79606e-05
4.28388e-05
3.80428e-05
2.05796e-05
4.93696e-05
4.30026e-05
4.30014e-05
2.05802e-05
2.05801e-05
4.29993e-05
4.9369e-05
2.05798e-05
4.30026e-05
3.79612e-05
3.87098e-05
4.28387e-05
3.80436e-05
4.28389e-05
3.80407e-05
3.79609e-05
4.08403e-05
2.18646e-05
2.18668e-05
2.18642e-05
2.18663e-05
4.08349e-05
4.51843e-05
6.06181e-05
3.88468e-05
4.7039e-05
4.70388e-05
6.06364e-05
4.51802e-05
4.51833e-05
6.06337e-05
3.88411e-05
4.70483e-05
6.06521e-05
4.70481e-05
4.51793e-05
4.51798e-05
4.70386e-05
3.88458e-05
6.0632e-05
4.70392e-05
6.06221e-05
4.51842e-05
4.51789e-05
4.70479e-05
3.88398e-05
6.06479e-05
6.06379e-05
4.70485e-05
4.51832e-05
4.08399e-05
2.18641e-05
2.18662e-05
2.18647e-05
2.18669e-05
4.08371e-05
2.4482e-05
2.44818e-05
2.44813e-05
2.44815e-05
4.08381e-05
2.18643e-05
2.18665e-05
4.08354e-05
2.18647e-05
2.18668e-05
4.51803e-05
6.06316e-05
3.88462e-05
4.70386e-05
6.06216e-05
4.70392e-05
4.51837e-05
4.51794e-05
6.06477e-05
3.88401e-05
4.70478e-05
4.70485e-05
6.06378e-05
4.51828e-05
4.51843e-05
4.70394e-05
6.06258e-05
3.88472e-05
6.06363e-05
4.51804e-05
4.70388e-05
4.51834e-05
4.70487e-05
6.06419e-05
3.88414e-05
4.51795e-05
4.70481e-05
6.06524e-05
4.08257e-05
2.18646e-05
2.18667e-05
2.18642e-05
2.18663e-05
4.08288e-05
2.44818e-05
2.4482e-05
3.79612e-05
3.80442e-05
4.28378e-05
3.87074e-05
3.80413e-05
4.28383e-05
3.79612e-05
2.05809e-05
4.93673e-05
4.30073e-05
4.30013e-05
2.05806e-05
2.05807e-05
4.30008e-05
4.93679e-05
4.29997e-05
2.0581e-05
3.79611e-05
3.87118e-05
3.80427e-05
4.28381e-05
3.80433e-05
4.2838e-05
3.79614e-05
3.79591e-05
4.28377e-05
3.8042e-05
3.87068e-05
4.28382e-05
3.80391e-05
3.7959e-05
2.05802e-05
4.93651e-05
4.29974e-05
4.29915e-05
2.05798e-05
2.05799e-05
4.29911e-05
4.93657e-05
4.29899e-05
2.05802e-05
3.7959e-05
3.8711e-05
4.2838e-05
3.80404e-05
4.28379e-05
3.80411e-05
3.79593e-05
3.79609e-05
3.80398e-05
4.28387e-05
3.87117e-05
3.79612e-05
3.80431e-05
4.28382e-05
2.05804e-05
4.93678e-05
4.30013e-05
4.30001e-05
2.05809e-05
2.05808e-05
4.29976e-05
4.93672e-05
2.05805e-05
4.30014e-05
3.79617e-05
3.87075e-05
3.80439e-05
4.28379e-05
3.8041e-05
4.28383e-05
3.79614e-05
3.79588e-05
4.28386e-05
3.80376e-05
3.87113e-05
3.79591e-05
4.28381e-05
3.80408e-05
2.05797e-05
4.93656e-05
4.29915e-05
4.29903e-05
2.05802e-05
2.05801e-05
4.29875e-05
4.9365e-05
2.05798e-05
4.29915e-05
3.79596e-05
3.87071e-05
4.28378e-05
3.80417e-05
4.28382e-05
3.80388e-05
3.79592e-05
3.79581e-05
4.28373e-05
3.8708e-05
3.80392e-05
3.80361e-05
4.28377e-05
3.79583e-05
2.05802e-05
4.29971e-05
4.93644e-05
4.29912e-05
2.05799e-05
3.79579e-05
3.87124e-05
3.80375e-05
4.28375e-05
3.80383e-05
4.28375e-05
3.79582e-05
2.058e-05
4.29908e-05
4.9365e-05
4.29896e-05
2.05803e-05
3.79598e-05
3.80365e-05
4.28382e-05
3.87119e-05
3.80334e-05
4.28386e-05
3.79602e-05
2.05799e-05
4.93647e-05
4.2989e-05
4.29836e-05
2.05795e-05
2.05796e-05
4.29839e-05
4.93653e-05
4.29823e-05
2.05799e-05
3.79597e-05
3.87158e-05
3.80347e-05
4.28385e-05
3.80356e-05
4.28383e-05
3.79599e-05
3.79577e-05
4.28381e-05
3.87122e-05
3.80346e-05
3.79582e-05
3.8038e-05
4.28376e-05
2.05798e-05
4.29913e-05
4.93649e-05
4.29901e-05
2.05803e-05
3.79583e-05
3.87079e-05
3.80389e-05
4.28373e-05
3.80357e-05
4.28378e-05
3.7958e-05
2.05802e-05
4.29879e-05
4.93641e-05
2.05799e-05
4.29913e-05
3.79596e-05
3.80319e-05
4.2839e-05
3.87159e-05
3.79602e-05
3.80354e-05
4.28386e-05
2.05793e-05
4.93652e-05
4.29842e-05
4.29825e-05
2.05799e-05
2.05798e-05
4.29794e-05
4.93646e-05
2.05794e-05
4.29835e-05
3.79602e-05
3.87121e-05
3.80362e-05
4.28383e-05
3.80331e-05
4.28387e-05
3.79598e-05
2.44813e-05
2.44811e-05
2.44803e-05
2.448e-05
4.08397e-05
2.18665e-05
2.1864e-05
4.08373e-05
2.18668e-05
2.18643e-05
4.51748e-05
6.0642e-05
3.88454e-05
4.70482e-05
4.51783e-05
6.06317e-05
4.70488e-05
4.5179e-05
6.06307e-05
3.88424e-05
4.70387e-05
4.51824e-05
6.06204e-05
4.70393e-05
4.5179e-05
4.7049e-05
6.06355e-05
3.88463e-05
4.5175e-05
6.06464e-05
4.70484e-05
4.51831e-05
4.70395e-05
6.06241e-05
3.88432e-05
4.51792e-05
6.06348e-05
4.70389e-05
4.0827e-05
2.18667e-05
2.18642e-05
4.08303e-05
2.18663e-05
2.18638e-05
2.4481e-05
2.44812e-05
2.44799e-05
2.44801e-05
2.44822e-05
2.44823e-05
2.44803e-05
2.448e-05
4.08436e-05
2.18667e-05
2.18639e-05
2.18664e-05
2.18639e-05
4.08357e-05
4.51756e-05
6.06237e-05
3.88445e-05
4.70448e-05
4.70476e-05
6.06465e-05
4.51676e-05
4.51726e-05
6.061e-05
3.88401e-05
4.70415e-05
4.70379e-05
6.06237e-05
4.51689e-05
4.51717e-05
4.7049e-05
3.88438e-05
6.06441e-05
4.70493e-05
4.51764e-05
6.0634e-05
4.51669e-05
4.70363e-05
3.88391e-05
6.06173e-05
4.70373e-05
4.51715e-05
6.06075e-05
4.08458e-05
2.18657e-05
2.18642e-05
2.18667e-05
2.18647e-05
4.08457e-05
3.79607e-05
3.87097e-05
4.28386e-05
3.8044e-05
4.28391e-05
3.8041e-05
3.79606e-05
2.05801e-05
4.29992e-05
4.9369e-05
2.05797e-05
4.30034e-05
3.79606e-05
3.8714e-05
4.28395e-05
3.80395e-05
4.2839e-05
3.79609e-05
3.80429e-05
2.05799e-05
4.30015e-05
4.93695e-05
4.30019e-05
2.058e-05
4.08441e-05
2.18644e-05
2.18665e-05
2.18642e-05
2.18664e-05
4.0843e-05
4.51842e-05
6.06254e-05
4.70394e-05
3.88476e-05
4.70388e-05
4.51799e-05
6.06359e-05
4.51832e-05
6.06414e-05
4.70487e-05
3.88417e-05
6.06517e-05
4.5179e-05
4.70481e-05
4.0841e-05
2.18643e-05
2.18665e-05
2.18647e-05
4.08349e-05
2.18669e-05
4.51798e-05
4.70387e-05
3.88466e-05
6.06327e-05
4.70392e-05
6.06218e-05
4.518e-05
4.51789e-05
4.7048e-05
3.88405e-05
6.0648e-05
6.06374e-05
4.70485e-05
4.51788e-05
2.44819e-05
2.44816e-05
3.79572e-05
4.28381e-05
3.80353e-05
3.8713e-05
4.28385e-05
3.80322e-05
3.7957e-05
2.05788e-05
4.93609e-05
4.29819e-05
4.29765e-05
2.05784e-05
2.05785e-05
4.29767e-05
4.93615e-05
4.2975e-05
2.05788e-05
3.79571e-05
3.8717e-05
4.28384e-05
3.80336e-05
4.28383e-05
3.80344e-05
3.79573e-05
3.79612e-05
3.87074e-05
3.8041e-05
4.2838e-05
3.80409e-05
4.28384e-05
3.79612e-05
2.05808e-05
4.29982e-05
4.93672e-05
4.30022e-05
2.05805e-05
3.79611e-05
3.87117e-05
3.80396e-05
4.28387e-05
3.80429e-05
3.79614e-05
4.28382e-05
2.05806e-05
4.30003e-05
4.93677e-05
4.30007e-05
2.05807e-05
3.79591e-05
3.87071e-05
4.28379e-05
3.80392e-05
4.28383e-05
3.8039e-05
3.79591e-05
2.05801e-05
4.29884e-05
4.9365e-05
2.05798e-05
4.29923e-05
3.7959e-05
3.87114e-05
4.28386e-05
3.80375e-05
3.79593e-05
4.28381e-05
3.80409e-05
2.05799e-05
4.29905e-05
4.93655e-05
4.29909e-05
2.058e-05
4.08438e-05
2.18635e-05
2.18666e-05
2.18631e-05
2.18662e-05
4.08353e-05
4.51808e-05
6.06106e-05
3.88341e-05
4.70372e-05
4.7037e-05
6.06284e-05
4.51768e-05
4.51813e-05
6.06323e-05
3.88465e-05
4.70491e-05
6.0651e-05
4.7049e-05
4.51771e-05
4.51765e-05
4.70369e-05
3.88328e-05
6.06244e-05
4.70374e-05
6.06148e-05
4.51807e-05
4.51762e-05
4.70487e-05
3.88458e-05
6.06465e-05
6.06364e-05
4.70494e-05
4.51806e-05
4.08459e-05
2.18633e-05
2.18661e-05
2.18637e-05
2.18667e-05
4.08458e-05
2.44812e-05
2.4481e-05
3.79581e-05
3.87076e-05
3.80387e-05
4.28373e-05
3.80356e-05
4.28378e-05
3.79581e-05
2.05802e-05
4.2988e-05
4.93643e-05
4.29921e-05
2.05799e-05
3.79579e-05
3.8712e-05
3.80343e-05
4.28382e-05
3.80378e-05
3.79582e-05
4.28377e-05
2.058e-05
4.2992e-05
4.93649e-05
4.29906e-05
2.05802e-05
3.79598e-05
3.87121e-05
3.80366e-05
4.28383e-05
3.80334e-05
4.28387e-05
3.79599e-05
2.05798e-05
4.29795e-05
4.93646e-05
2.05794e-05
4.29839e-05
3.79597e-05
3.87161e-05
3.80319e-05
4.28391e-05
3.79599e-05
3.80354e-05
4.28386e-05
2.05795e-05
4.29838e-05
4.93652e-05
4.29828e-05
2.05796e-05
2.44811e-05
2.44809e-05
2.448e-05
2.44799e-05
0.000217701
0.000217707
0.000207279
0.000217703
0.000217708
0.000223917
0.000223918
7.12918e-05
0.000106982
0.000106959
0.000141617
0.000107041
0.000107017
7.12717e-05
0.0002177
0.000217704
0.000207275
0.0002177
0.000217704
0.000223916
0.000223916
7.12924e-05
0.000106982
0.000106968
0.000141618
7.12722e-05
0.00010704
0.000107028
7.12994e-05
0.000106971
0.000106988
0.000141627
0.000107048
0.00010703
7.1279e-05
7.12737e-05
0.000141437
0.000107024
0.000107053
0.000106969
0.000107002
7.13061e-05
7.12664e-05
0.000141427
0.000107036
0.000107024
7.12987e-05
0.000106993
0.000106977
7.12919e-05
0.000106978
0.000106966
0.000141618
0.000107043
0.00010703
7.12723e-05
7.13005e-05
0.00010698
0.000107005
0.000141623
0.000107061
7.12798e-05
0.000107036
7.12929e-05
0.000106962
0.000106982
0.000141613
0.000107041
0.000107021
7.12727e-05
0.000217697
0.000217701
0.000207277
0.000217699
0.000217703
0.000223912
0.000223913
0.000217697
0.000217695
0.00020727
0.000217697
0.0002177
0.000223911
0.000223911
0.000217695
0.000217697
0.000207273
0.000217697
0.000217699
0.00022391
0.00022391
0.000207278
0.000217701
0.000217706
0.000217702
0.000217708
0.000223918
0.000223918
0.000207276
0.000217698
0.000217701
0.000217697
0.000217702
0.000223914
0.000223913
0.000207269
0.000217698
0.000217696
0.000217695
0.000217699
0.000223912
0.000223912
0.000207272
0.000217695
0.000217698
0.000217696
0.000217698
0.000223911
0.000223911
0.000121437
6.89478e-05
0.000128596
7.53245e-05
6.89262e-05
0.000128493
0.000121576
0.000104225
8.35786e-05
4.61396e-05
5.54654e-05
8.36351e-05
5.5489e-05
0.000104116
0.000104128
5.54851e-05
4.61311e-05
8.36263e-05
8.35784e-05
5.5469e-05
0.000104238
0.00012157
7.53484e-05
6.89259e-05
0.000128474
6.8954e-05
0.000128596
0.00012144
0.000121429
0.000128589
7.53205e-05
6.89439e-05
0.000128486
6.89231e-05
0.000121567
0.000104221
8.35773e-05
5.54684e-05
4.61431e-05
5.54914e-05
0.000104114
8.36346e-05
0.000121561
7.53456e-05
0.000128468
6.8922e-05
0.000128588
6.89506e-05
0.000121432
0.000104125
5.54873e-05
4.61342e-05
8.36235e-05
5.54718e-05
0.000104233
8.35769e-05
7.1277e-05
0.000141431
0.000107041
0.000107018
0.000106988
0.000106963
7.12977e-05
0.000217699
0.000217703
0.000207278
0.000217699
0.000217704
0.000223912
0.000223912
0.0002177
0.000217698
0.000207271
0.000217699
0.000217698
0.00022391
0.00022391
0.000217696
0.0002177
0.000207274
0.000217697
0.0002177
0.00022391
0.00022391
0.000121436
7.53231e-05
6.89487e-05
0.0001286
6.89254e-05
0.000128492
0.000121577
0.000104225
8.35783e-05
5.54651e-05
4.61394e-05
0.000104116
8.36345e-05
5.54888e-05
0.00012157
7.53506e-05
6.89256e-05
0.000128475
0.000121439
6.89534e-05
0.000128595
0.000104126
5.54856e-05
4.61309e-05
8.36267e-05
8.35775e-05
5.54688e-05
0.000104241
0.000121429
7.53155e-05
0.000128583
6.89415e-05
0.000128485
6.89215e-05
0.000121569
0.000104223
8.35786e-05
5.54677e-05
4.61427e-05
0.000104113
8.36361e-05
5.5491e-05
0.000121562
7.534e-05
0.000128468
6.89217e-05
0.000121433
0.000128588
6.89497e-05
0.000104127
5.54871e-05
4.61343e-05
8.36277e-05
8.35792e-05
5.54715e-05
0.000104234
7.12775e-05
0.000141432
0.000107043
0.00010703
0.000106986
0.000106973
7.12998e-05
0.000121431
0.00012859
7.53098e-05
6.89358e-05
6.89142e-05
0.000128487
0.000121568
0.000104219
8.35661e-05
5.54604e-05
4.61435e-05
5.5483e-05
0.000104113
8.36188e-05
0.000121564
7.53285e-05
6.89135e-05
0.000128463
6.89414e-05
0.00012859
0.000121435
0.000104121
5.54781e-05
4.61335e-05
8.35982e-05
5.54628e-05
0.000104226
8.35541e-05
0.000121429
6.89342e-05
0.000128589
7.53084e-05
6.89126e-05
0.000128483
0.000121568
0.000104212
8.35569e-05
4.61433e-05
5.54598e-05
5.54833e-05
8.36132e-05
0.000104104
0.000104115
5.54791e-05
4.61349e-05
8.36034e-05
5.54634e-05
0.000104224
8.35566e-05
0.000121562
7.53274e-05
6.89117e-05
0.000128459
6.894e-05
0.000128586
0.000121432
0.000121573
0.000128488
7.53492e-05
6.89218e-05
0.000121438
6.89448e-05
0.000128586
0.000104095
8.36124e-05
5.54796e-05
4.61341e-05
5.54638e-05
0.000104221
8.35678e-05
0.000121442
7.53188e-05
6.89413e-05
0.000128576
6.89189e-05
0.000128473
0.000121573
0.000104213
5.54664e-05
8.35607e-05
4.61424e-05
0.000104102
5.5483e-05
8.36196e-05
0.000121573
6.89197e-05
0.00012849
7.53494e-05
0.000121437
6.89438e-05
0.000128588
0.000104091
8.36114e-05
4.61348e-05
5.54795e-05
5.54635e-05
8.35618e-05
0.000104217
0.00010421
5.54673e-05
8.35629e-05
4.61432e-05
0.000104102
5.54835e-05
8.36131e-05
0.000121442
7.53192e-05
6.89417e-05
0.000128576
6.8918e-05
0.000128473
0.000121573
7.12845e-05
0.00014144
0.000107025
0.000107049
0.000106995
0.000106972
7.13054e-05
7.12999e-05
0.000141627
0.000106979
0.000107013
0.00010703
7.12792e-05
0.000107064
0.000121429
0.000128593
6.89337e-05
7.53118e-05
0.000128489
6.89124e-05
0.000121568
0.000104215
8.35653e-05
4.61418e-05
5.54609e-05
8.36223e-05
5.54844e-05
0.000104107
0.000104119
5.54805e-05
4.61334e-05
8.36113e-05
8.35645e-05
5.54645e-05
0.000104227
0.000121561
7.53284e-05
0.000128465
6.89112e-05
0.000128591
6.89396e-05
0.000121431
0.000121581
6.89322e-05
0.000128495
7.53544e-05
0.000121445
6.89563e-05
0.000128594
0.000104105
8.36313e-05
4.61311e-05
5.54849e-05
0.000104233
8.35827e-05