/*--------------------------------*- C++ -*----------------------------------*\
| =========                 |                                                 |
| \\      /  F ield         | OpenFOAM: The Open Source CFD Toolbox           |
|  \\    /   O peration     | Version:  v1912                                 |
|   \\  /    A nd           | Website:  www.openfoam.com                      |
|    \\/     M anipulation  |                                                 |
\*---------------------------------------------------------------------------*/
FoamFile
{
    version     2.0;
    format      ascii;
    class       surfaceScalarField;
    location    "40";
    object      phi;
}
// * * * * * * * * * * * * * * * * * * * * * * * * * * * * * * * * * * * * * //

dimensions      [0 3 -1 0 0 0 0];
oriented        oriented;


internalField   nonuniform List<scalar> 
166251
(
-4.94283e-09
-1.26918e-08
0.000106009
-0.000105992
-1.38086e-09
5.46756e-08
0.00026176
-0.000261617
-1.95198e-07
-1.16764e-09
4.17394e-09
1.24327e-06
0.00109633
-2.17069e-09
-9.36128e-07
2.86376e-07
-2.90906e-07
9.3664e-07
-1.23966e-06
2.79381e-07
-2.81191e-07
-3.51412e-09
0.00109226
2.14652e-09
-1.0026e-06
8.14938e-07
-8.17432e-07
1.00155e-06
1.53041e-08
3.57739e-08
0.000264735
-6.72909e-09
-0.000264646
-1.32934e-07
-1.2774e-06
-1.24339e-06
0.000269238
-0.000267204
2.40816e-07
2.46116e-07
-1.78862e-08
1.04321e-08
0.000305199
8.50732e-09
-0.00030516
-3.97004e-08
-1.78772e-08
1.04235e-08
0.000305139
9.10062e-09
-0.000305104
-3.72484e-08
1.39843e-08
4.25716e-09
0.000106007
1.15805e-08
4.28279e-09
0.000106008
1.28187e-06
1.2399e-06
0.000267206
-2.34659e-07
-2.39989e-07
1.71682e-08
-1.14271e-08
4.10795e-08
0.000305159
1.74023e-08
-8.98581e-09
3.84665e-08
0.000305112
1.74754e-10
5.40918e-08
-1.89773e-08
3.32709e-10
0.000250165
4.01758e-08
-3.93261e-09
0.000212209
5.41319e-08
-1.89997e-08
2.71311e-10
0.000250205
3.79701e-08
-4.28086e-09
-3.92653e-09
0.000212262
1.58825e-09
1.34719e-09
1.91935e-07
0.00026163
4.95035e-09
-1.43237e-09
1.28555e-06
-2.89541e-07
2.84877e-07
9.36832e-07
-2.909e-07
2.80802e-07
-9.41666e-07
0.00109589
4.70621e-09
1.38798e-07
0.000264646
4.07593e-09
2.33184e-09
1.00721e-06
-8.22905e-07
-1.00816e-06
8.205e-07
0.00109261
5.67062e-10
1.89418e-07
0.000261663
4.37526e-09
-1.28749e-06
3.3416e-09
9.42442e-07
-2.91126e-07
-9.44792e-07
2.86399e-07
1.29107e-06
-2.92498e-07
2.90534e-07
0.00109632
-1.47528e-08
4.80079e-09
1.36418e-07
0.000264659
7.32612e-09
1.01019e-06
-8.23048e-07
-1.01113e-06
8.20603e-07
0.00109275
1.17076e-08
0.000106015
1.24513e-06
0.000267228
-2.37538e-07
-2.42346e-07
-8.5559e-09
4.10738e-08
0.000305098
-1.38963e-08
1.45124e-08
-1.17536e-08
3.84361e-08
0.000305215
4.25677e-09
0.000106016
-5.46823e-08
0.000250192
-0.000250154
1.67308e-08
5.42449e-11
-3.80533e-08
0.000212214
1.25113e-09
-0.000212182
0.000261758
-0.000261619
-1.95219e-07
-6.82345e-10
4.41457e-09
0.001096
1.28287e-06
-1.85996e-09
-9.391e-07
2.86335e-07
9.39452e-07
-2.91012e-07
-1.27933e-06
2.87699e-07
-2.89688e-07
0.00109247
2.18508e-09
-1.00275e-06
8.15028e-07
-8.14786e-07
1.00447e-06
0.000264675
1.77581e-08
-9.22916e-09
-0.000264589
-1.32807e-07
5.68378e-08
2.64848e-10
2.33901e-10
-1.68701e-08
0.000250194
3.79179e-08
-3.89658e-09
0.000212243
1.84757e-09
1.06833e-09
1.91945e-07
0.00026165
3.84049e-09
-1.86514e-09
1.24605e-06
-2.81256e-07
2.84951e-07
9.3956e-07
-2.85629e-07
2.89155e-07
-9.36497e-07
0.00109693
7.36918e-09
1.3622e-07
0.00026466
5.36964e-09
2.15445e-09
1.00712e-06
-8.17507e-07
-1.00556e-06
8.17732e-07
0.0010925
5.41437e-08
-1.67725e-08
3.88047e-10
0.000250155
4.01449e-08
-4.22017e-09
-3.97759e-09
0.000212182
1.91945e-07
8.9832e-10
0.000261621
4.46841e-09
-1.27935e-06
-1.80568e-09
9.39557e-07
-2.90986e-07
-9.39121e-07
2.86357e-07
1.28286e-06
-2.89674e-07
2.87688e-07
0.001096
2.25083e-09
1.0045e-06
-8.14798e-07
-1.00277e-06
8.15016e-07
0.00109248
-1.72899e-08
7.28555e-09
1.36178e-07
0.000264589
5.45869e-08
0.000261769
-0.000261634
-1.90051e-07
-6.4276e-10
4.43146e-09
0.00109579
-1.87999e-09
-1.27386e-06
2.8203e-07
-2.83982e-07
-9.36355e-07
2.83471e-07
-2.88179e-07
9.36711e-07
0.00109247
2.18465e-09
-1.00272e-06
8.20506e-07
-8.20227e-07
1.00446e-06
3.574e-08
0.000264724
-6.73608e-09
-0.000264638
-1.32844e-07
0.000250199
-0.000250164
1.88806e-08
1.36495e-10
0.000212226
4.96282e-09
1.18429e-09
-0.000212196
-5.40921e-08
1.76079e-09
1.57887e-09
1.91921e-07
0.00026166
4.20396e-09
-2.03461e-09
1.24874e-06
-2.84048e-07
2.82192e-07
9.36814e-07
-2.88225e-07
-9.36329e-07
2.83628e-07
0.00109668
-4.01995e-08
4.7147e-09
1.38692e-07
0.000264707
3.45537e-09
2.1875e-09
1.00716e-06
-8.20194e-07
-1.00553e-06
8.2048e-07
0.00109253
2.39438e-10
4.97118e-10
-1.89918e-08
0.000250203
-3.91565e-09
0.000212255
-5.4053e-08
1.8936e-07
8.61917e-10
0.000261634
4.46095e-09
-1.27387e-06
-1.86127e-09
9.3676e-07
-2.88147e-07
-9.36311e-07
2.83503e-07
1.2774e-06
-2.83957e-07
2.8204e-07
0.00109579
2.2296e-09
1.00448e-06
-8.20244e-07
-1.00272e-06
8.20492e-07
0.00109247
-3.78599e-08
-1.74619e-08
4.82069e-09
1.36251e-07
0.000264638
-1.89326e-08
3.02204e-10
0.000250164
-4.24276e-09
-3.93514e-09
0.000212196
0.000269232
-0.000267191
2.385e-07
2.45878e-07
0.000305097
8.53203e-09
-0.000305061
-3.96107e-08
1.04013e-08
0.000305202
8.59308e-09
-0.000305166
-3.96807e-08
0.000106018
-4.97588e-09
-0.000106002
1.38919e-08
0.000105991
1.23967e-06
0.000267191
-2.34898e-07
-2.42307e-07
-8.5512e-09
4.09048e-08
0.000305062
-1.16191e-08
1.47834e-08
-8.54215e-09
4.09604e-08
0.000305166
4.2407e-09
0.000106002
5.72856e-08
0.00026179
-0.000261653
-1.95194e-07
-1.40304e-10
4.20003e-09
0.00109685
-2.03481e-09
-1.23981e-06
2.79445e-07
-2.81302e-07
-9.36445e-07
2.86437e-07
-2.91043e-07
9.36963e-07
0.00109238
2.1344e-09
-1.00007e-06
8.15016e-07
-8.14814e-07
1.00171e-06
3.57896e-08
0.000264743
-6.68177e-09
-0.000264654
-1.35409e-07
-1.36478e-10
0.000250193
-0.000250155
-1.20302e-10
1.6726e-08
0.000212229
1.20011e-09
-0.000212199
0.000250232
-0.000250192
1.45491e-10
1.67235e-08
0.000212271
4.9596e-09
1.21472e-09
-0.000212241
1.39084e-09
-5.4124e-08
1.94484e-07
1.37224e-09
0.000261617
4.22115e-09
-2.10602e-09
1.24326e-06
-2.81175e-07
2.79373e-07
9.36684e-07
-2.90877e-07
-9.36091e-07
2.86402e-07
0.00109633
3.36285e-09
2.24009e-09
1.00428e-06
-8.147e-07
-9.99889e-07
8.17685e-07
0.00109225
-3.78605e-08
4.81712e-09
1.36223e-07
0.000264646
-5.67507e-08
1.94538e-07
3.32462e-10
0.000261653
4.22834e-09
-1.23982e-06
-2.0325e-09
9.37016e-07
-2.91009e-07
-9.36398e-07
2.86472e-07
1.24338e-06
-2.81277e-07
2.79453e-07
0.00109685
2.19389e-09
1.00173e-06
-8.14821e-07
-1.00006e-06
8.15021e-07
0.00109238
-3.78754e-08
-1.74352e-08
4.78313e-09
1.3875e-07
0.000264655
1.42825e-10
5.52438e-10
-1.67773e-08
0.000250155
-3.92313e-09
0.000212199
2.67966e-10
-1.6785e-08
0.000250192
-4.24137e-09
-3.9269e-09
0.000212241
0.000106017
-0.000106002
0.000106021
-0.000106006
0.000267204
-2.37263e-07
-2.42545e-07
-1.16158e-08
-8.64594e-09
4.10463e-08
0.00030516
-1.16093e-08
-9.18585e-09
3.85649e-08
0.000305104
0.000106002
0.000106005
4.27299e-09
1.39619e-08
-6.59739e-09
-6.6245e-09
0.000237876
1.45155e-08
1.68702e-08
-8.74722e-05
-6.10867e-09
-5.19871e-09
8.74835e-05
-8.74607e-05
-6.09127e-09
-5.26094e-09
8.74721e-05
5.651e-09
5.66883e-09
-1.44501e-08
-1.68698e-08
0.000237895
2.8079e-08
-2.26487e-08
0.000241504
5.02308e-08
-0.000200165
-2.20341e-08
0.000200191
4.10952e-08
-8.61623e-09
-1.16929e-08
1.74317e-08
-0.000266115
2.66243e-08
0.000266165
-8.03271e-08
-3.66584e-08
7.97981e-08
3.99788e-08
0.000241546
-5.1339e-08
2.80848e-08
-2.05949e-08
0.000241448
5.05415e-08
-0.000200119
-1.99722e-08
0.000200142
3.86152e-08
-9.15017e-09
-1.16899e-08
1.74024e-08
-0.000266019
2.67284e-08
0.000266077
-8.54073e-08
-3.6747e-08
8.48265e-08
3.99946e-08
0.00024149
-5.16079e-08
-1.28568e-08
-4.9567e-09
0.000106025
-1.03501e-08
-4.89185e-09
0.000106024
-0.000237876
6.10175e-09
8.17019e-09
-1.19442e-08
-1.93057e-08
0.000237893
6.60415e-09
8.74767e-05
5.67716e-09
6.526e-09
8.74587e-05
5.50677e-09
1.7049e-08
1.68627e-08
-3.39402e-09
8.74862e-05
-7.02133e-09
8.74739e-05
-0.000241502
1.9705e-08
-2.39392e-08
-4.8897e-08
0.000241543
2.30706e-08
0.000200165
-3.08556e-08
0.000266113
8.23768e-08
4.26553e-08
8.94938e-09
-3.44242e-08
-1.51472e-08
0.000305187
5.05096e-08
0.000200191
-7.7447e-08
-3.39764e-08
0.000266166
-0.000241448
2.47598e-08
-3.20754e-08
-5.41717e-08
0.00024149
2.03606e-08
0.000200114
-2.78672e-08
0.000266026
7.97106e-08
4.26032e-08
1.13861e-08
-4.24488e-08
-1.78011e-08
0.00030515
5.04708e-08
0.000200143
-9.12706e-08
-4.20518e-08
0.000266085
-0.000157504
7.63186e-10
-1.6471e-08
-2.85307e-10
0.00015752
8.00343e-10
0.000188934
1.49865e-11
-1.89326e-08
0.000245074
1.61143e-10
5.50091e-08
1.88532e-08
9.23288e-11
8.0294e-11
-5.19603e-08
0.000250198
2.64225e-10
1.07225e-11
0.000188953
1.30251e-09
-5.6255e-08
0.000245113
-8.51018e-05
-1.44476e-08
8.5116e-05
-1.82115e-08
0.000290746
5.13286e-08
1.21523e-09
-3.80767e-08
0.000212241
-5.2036e-08
0.000290786
-0.000157583
7.47109e-10
-1.66444e-08
-2.13011e-10
0.000157599
8.01553e-10
0.000188972
-1.67881e-08
0.000245168
1.33741e-10
5.51409e-08
1.88771e-08
1.66581e-10
-5.19859e-08
0.000250238
4.81614e-10
0.000188992
1.3864e-09
-5.64071e-08
0.000245206
-8.515e-05
-1.46876e-08
8.51645e-05
-1.5941e-08
0.000290867
5.15216e-08
1.18952e-09
4.97074e-09
-3.57816e-08
0.000212292
-5.21683e-08
0.000290908
-1.04495e-08
0.00010603
-0.000237886
6.11675e-09
6.1193e-09
-1.67708e-08
-1.44769e-08
0.000237905
6.56063e-09
8.74635e-05
5.58174e-09
6.59439e-09
8.74756e-05
5.49803e-09
1.69074e-08
1.45337e-08
-5.23878e-09
8.74749e-05
-5.18663e-09
8.74869e-05
-2.66194e-08
-0.000241452
2.20765e-08
-4.90375e-08
0.000241488
2.26019e-08
0.000200115
0.000266011
-2.80947e-08
3.99972e-08
8.24028e-08
-3.971e-08
8.53492e-09
-1.52799e-08
0.000305134
-3.66362e-08
-8.29856e-08
0.000266065
4.79388e-08
0.000200141
-0.000241517
2.02169e-08
-2.92848e-08
-5.39264e-08
0.000241566
2.07215e-08
0.000200172
-3.06504e-08
0.000266163
8.49126e-08
3.9945e-08
1.17475e-08
-3.71064e-08
1.26537e-08
-1.50151e-08
0.000305242
5.28364e-08
0.000200199
-8.5538e-08
-3.66795e-08
0.000266218
-4.94636e-09
0.000106034
-7.5699e-10
1.88796e-08
0.000157499
2.957e-10
-1.6841e-08
8.45554e-11
5.42183e-08
-0.00018893
-7.53608e-10
0.000188948
-0.000245062
1.87246e-08
1.28655e-09
0.000245099
-5.62434e-08
1.76686e-10
5.49694e-08
-9.73325e-12
0.000157517
1.80828e-08
8.51008e-05
-0.000290737
1.68135e-08
0.000290774
-5.19821e-08
-3.92575e-09
4.02027e-08
5.13526e-08
8.51176e-05
-0.00015758
-1.66434e-08
7.73148e-10
-2.54997e-10
0.000157596
-1.68122e-08
0.000245164
1.09904e-10
5.77734e-08
7.44647e-10
0.000188969
5.54167e-11
3.6787e-10
1.67455e-08
-4.32207e-11
-5.73189e-08
0.000250234
4.25447e-10
1.29819e-09
-5.89778e-08
0.000245205
5.21241e-11
0.000188986
-8.51506e-05
-1.47154e-08
8.5165e-05
-1.59131e-08
0.000290875
5.15111e-08
1.27113e-09
-3.57087e-08
0.000212273
-5.22149e-08
0.000290915
-0.000157499
7.04181e-10
-1.88136e-08
1.5269e-11
0.000157517
7.92326e-10
0.00018893
-1.8824e-08
0.000245063
2.08782e-10
5.49328e-08
1.67886e-08
3.15812e-10
-5.47413e-08
0.000250192
2.84422e-10
0.000188948
1.31821e-09
-5.63093e-08
0.000245099
-8.50998e-05
-1.69062e-08
8.51167e-05
-1.80695e-08
0.000290737
5.13622e-08
1.21729e-09
4.98675e-09
-3.81284e-08
0.000212214
-5.20684e-08
0.000290775
-7.66151e-10
1.67902e-08
0.000157504
4.70895e-10
-1.8984e-08
-6.26252e-12
5.41176e-08
-0.00018893
-7.71085e-10
0.00018895
-0.000245069
1.66191e-08
1.4066e-09
0.00024511
-5.89887e-08
8.25239e-11
5.76925e-08
-2.23426e-10
0.00015752
1.59534e-08
8.51074e-05
-0.000290746
1.46472e-08
0.000290789
-5.46967e-08
-3.89496e-09
-4.30049e-09
3.79177e-08
5.40785e-08
8.51218e-05
-0.000157584
-1.66215e-08
7.77387e-10
-2.4235e-10
0.0001576
-1.67816e-08
0.000245173
7.52472e-11
5.77366e-08
7.641e-10
0.000188968
6.19141e-11
1.29866e-10
1.88753e-08
4.48315e-12
-5.4597e-08
0.000250239
4.46803e-10
1.36262e-09
-5.89556e-08
0.000245214
5.27103e-11
0.000188988
-8.51546e-05
-1.47077e-08
8.51691e-05
-1.59046e-08
0.000290888
5.40476e-08
1.24445e-09
-3.80808e-08
0.000212286
-5.47716e-08
0.000290931
-0.000157504
7.19154e-10
-1.67118e-08
-1.81582e-10
0.00015752
7.98624e-10
0.00018893
-1.67421e-08
0.00024507
1.14235e-10
5.76561e-08
1.89272e-08
4.0607e-10
-5.46299e-08
0.0002502
4.73228e-10
0.00018895
1.44212e-09
-5.90521e-08
0.000245111
-8.51064e-05
-1.47544e-08
8.51209e-05
-1.59154e-08
0.000290747
5.40672e-08
1.15515e-09
5.01017e-09
-3.58156e-08
0.000212226
-5.47913e-08
0.00029079
-6.56431e-09
-6.59662e-09
0.000237869
1.45528e-08
1.67774e-08
-8.74548e-05
-6.14375e-09
-5.28427e-09
8.74662e-05
-8.74735e-05
-6.14369e-09
-5.2908e-09
8.7485e-05
5.58921e-09
5.56927e-09
-1.45372e-08
-1.67926e-08
0.000237888
-2.26059e-08
2.80633e-08
0.000241431
5.27866e-08
-0.000200106
-2.20826e-08
0.000200131
-8.53415e-09
4.09653e-08
1.72635e-08
-0.000265974
2.66637e-08
0.000266033
-3.93364e-08
-8.54998e-08
4.26246e-08
8.4908e-08
0.000241475
-5.39433e-08
2.80016e-08
-2.26487e-08
0.000241504
4.79338e-08
-0.000200167
-2.20766e-08
0.000200193
4.10259e-08
-8.51901e-09
-1.17084e-08
1.47549e-08
-0.000266125
2.66818e-08
0.000266176
-3.4075e-08
-8.28717e-08
3.72634e-08
8.229e-08
0.00024154
-4.89911e-08
4.28966e-09
-1.2738e-08
0.000106009
-0.000237869
6.17469e-09
6.17993e-09
-1.44857e-08
-1.67419e-08
0.000237888
6.61752e-09
8.7454e-05
5.55147e-09
6.64164e-09
8.74728e-05
5.53527e-09
1.46854e-08
1.69122e-08
-5.35883e-09
8.74655e-05
-5.36042e-09
8.74843e-05
-2.66374e-08
-0.000241431
2.21922e-08
-5.39707e-08
0.000241475
2.25724e-08
0.000200106
0.000265974
-2.80475e-08
4.25522e-08
8.48775e-08
-3.97106e-08
8.54898e-09
-1.77638e-08
0.000305098
-3.93851e-08
-8.54762e-08
0.000266033
5.27335e-08
0.000200131
-0.000241504
2.21878e-08
-2.66508e-08
-4.90228e-08
0.000241541
2.26111e-08
0.000200167
-2.79881e-08
0.000266125
8.22549e-08
3.71978e-08
8.59817e-09
-3.97809e-08
1.04757e-08
-1.53027e-08
0.000305202
4.78757e-08
0.000200193
-8.2855e-08
-3.41054e-08
0.000266176
-5.01124e-09
0.000106017
1.68079e-08
-5.96594e-10
0.000157504
4.57241e-10
3.7088e-11
-1.68658e-08
-1.81757e-11
5.42287e-08
-0.000245066
1.66186e-08
1.36878e-09
0.000245107
-5.89607e-08
-0.00018893
-7.36442e-10
-4.78518e-12
0.000188947
9.1473e-11
5.77112e-08
-1.01175e-12
-2.2536e-10
0.00015752
1.59432e-08
8.51073e-05
-0.000290744
1.46682e-08
0.000290786
-5.4744e-08
-3.89841e-09
3.79249e-08
5.4078e-08
8.51217e-05
1.68115e-08
-7.70845e-10
0.000157583
4.5558e-10
2.58265e-10
-1.68699e-08
5.68483e-08
-0.000245162
1.66193e-08
1.32706e-09
0.000245203
-5.89559e-08
-0.000188968
-7.32173e-10
0.000188985
1.13475e-10
5.77434e-08
-2.23842e-10
0.000157599
1.59399e-08
8.51535e-05
-0.000290869
1.46778e-08
0.000290909
-5.22098e-08
-3.90098e-09
-4.29124e-09
3.79353e-08
5.15056e-08
8.5168e-05
-0.000157503
-1.67181e-08
5.62395e-10
-2.04512e-10
0.00015752
-1.67564e-08
0.000245066
1.08502e-10
5.76804e-08
7.58049e-10
0.00018893
1.07003e-11
3.59244e-10
1.68115e-08
2.64855e-11
-5.47495e-08
0.000250192
4.44298e-10
1.38798e-09
-5.90215e-08
0.000245107
9.89817e-12
0.000188947
-8.51063e-05
-1.47856e-08
8.51209e-05
-1.59001e-08
0.000290744
5.40601e-08
1.18801e-09
-3.58613e-08
0.000212229
-5.48501e-08
0.000290787
-0.000157582
-1.6719e-08
7.32294e-10
-2.06256e-10
0.000157599
-1.67624e-08
0.000245162
1.31251e-10
5.76819e-08
7.53666e-10
0.000188968
1.55026e-10
1.68056e-08
-5.73568e-08
0.000250233
4.39373e-10
1.35038e-09
-5.90367e-08
0.000245204
0.000188985
-8.51525e-05
-1.47923e-08
8.51671e-05
-1.58926e-08
0.000290869
5.14869e-08
1.19797e-09
4.9987e-09
-3.58682e-08
0.000212271
-5.23075e-08
0.000290909
-0.000237877
6.14871e-09
6.13291e-09
-1.4443e-08
-1.68665e-08
0.000237896
6.66004e-09
8.74712e-05
5.65165e-09
6.68685e-09
8.74597e-05
5.66944e-09
1.46133e-08
1.69671e-08
-5.2695e-09
8.74826e-05
-5.32967e-09
8.74712e-05
-0.000241505
-2.66323e-08
2.21349e-08
-5.13914e-08
0.000241546
2.26404e-08
0.000200165
-2.80381e-08
0.000266115
3.98904e-08
7.9765e-08
-3.97866e-08
8.53976e-09
1.04834e-08
-1.78979e-08
0.000305199
5.01646e-08
-3.67226e-08
-8.03049e-08
0.000266165
0.00020019
-0.000241449
-2.67345e-08
2.0073e-08
-5.1665e-08
0.00024149
2.0585e-08
0.000200118
-2.80431e-08
0.000266019
3.99068e-08
8.47898e-08
-3.73383e-08
9.12556e-09
1.04824e-08
-1.7885e-08
0.00030514
5.04685e-08
-3.68085e-08
-8.53918e-08
0.000266077
0.000200142
0.000106017
0.000106021
-2.13464e-09
-2.0506e-09
0.00109714
2.6819e-11
0.00110142
2.31906e-11
-5.99326e-10
0.00110187
-1.70842e-10
0.00110847
-1.99992e-09
-2.04665e-09
0.00109735
-4.43381e-11
0.0011015
-3.93963e-11
0.0011019
0.00110851
-2.20117e-09
3.12501e-09
0.00109751
5.82646e-09
7.23098e-10
0.00110177
5.66999e-11
3.48763e-09
0.00110219
1.7578e-10
1.74192e-09
0.00110904
-1.9594e-09
-2.05392e-09
0.00109753
-4.09634e-11
0.00110181
-2.06227e-11
7.57287e-10
0.00110227
7.61608e-10
0.00110907
-2.12383e-09
-2.03549e-09
0.00109714
7.3817e-11
0.00110142
4.89423e-11
4.85619e-10
0.00110187
3.62215e-11
0.00110847
-2.00905e-09
-2.04459e-09
0.00109735
1.38916e-11
0.0011015
2.42911e-11
0.0011019
0.00110851
3.66462e-09
-2.14644e-07
0.000267822
-1.5021e-08
1.94536e-07
-1.66379e-10
-2.47504e-11
-0.000266577
-1.51984e-11
-3.94054e-09
0.0002672
-0.000262875
-2.16989e-07
5.23154e-10
0.000263032
1.20217e-09
-1.91214e-09
1.12483e-08
0.000268595
-1.48205e-08
-2.06273e-07
0.000269611
-0.000267423
-2.0781e-07
0.00026757
1.36286e-07
4.83743e-09
-0.000269669
-1.27822e-08
0.000269801
0.000270338
1.25255e-07
1.25424e-07
0.000255691
-2.37289e-07
-2.42577e-07
-0.000266094
1.26313e-07
0.00026641
-0.000266533
1.26541e-07
0.000266847
0.000255841
-0.000255699
-1.23535e-07
-1.29305e-07
0.000255849
2.38589e-07
2.45885e-07
0.000269254
-1.252e-07
0.000266099
-1.22788e-07
0.000266541
0.000266421
0.000266851
-0.000267832
2.16995e-07
-1.64411e-09
3.33912e-09
0.000268621
2.14707e-07
0.000262883
7.3306e-10
3.22522e-10
0.00026659
4.94106e-09
-1.51721e-10
-1.92615e-07
3.71917e-11
0.000261771
-4.32945e-09
5.47436e-10
0.000263043
-1.88623e-09
0.000267219
1.0197e-08
-0.000269611
2.07692e-07
0.000270334
2.08933e-07
0.000267421
0.000269659
1.20218e-08
-1.30148e-07
-6.66359e-09
0.00026473
0.000269786
0.000267571
-0.000267881
2.14573e-07
-8.58302e-10
5.51773e-10
0.000268677
2.12173e-07
0.000262956
6.9612e-10
-4.99213e-10
0.000266619
-1.11298e-10
-1.90073e-07
0.000261801
-1.64782e-09
6.17556e-10
0.000263113
0.000267247
-0.000269656
2.07831e-07
1.00129e-08
0.000270381
2.06449e-07
0.000267486
1.21352e-08
0.000269677
-6.75263e-09
-1.32937e-07
0.000264748
0.000267635
0.000269803
-1.26493e-07
-0.000255712
-1.26363e-07
0.000255862
2.4111e-07
2.4593e-07
0.00026928
0.000266521
-1.25451e-07
-1.25241e-07
0.000266153
0.000266843
0.00026647
4.4812e-10
-2.14671e-07
0.000267819
-4.38153e-09
1.91959e-07
3.50071e-10
-0.000266591
-4.83911e-10
0.000267204
-0.000262861
-2.17041e-07
5.25194e-10
0.000263021
7.15672e-10
3.30146e-09
0.000268603
-2.06268e-07
0.000269585
-1.4809e-08
-0.000267395
-2.07664e-07
0.000267542
7.31204e-09
1.36235e-07
-1.27365e-08
-0.000269613
0.00026974
0.000270307
-0.000267877
2.14441e-07
-4.55473e-09
1.65276e-08
0.000268658
2.09534e-07
0.000262956
-1.92865e-09
-1.56056e-09
0.000266603
7.19693e-09
8.79359e-10
-1.95227e-07
-4.37975e-10
0.000261787
-1.76834e-08
3.12181e-09
0.000263109
-4.35542e-09
0.000267226
1.52756e-08
-0.000269674
2.07836e-07
0.000270407
2.03616e-07
0.000267493
0.0002697
1.49252e-08
-1.38039e-07
-9.26755e-09
0.000264754
0.000269824
0.000267643
-0.000267814
-2.71562e-10
2.14495e-07
5.11435e-10
0.000268604
8.92523e-11
0.000266588
2.12053e-07
0.000262864
7.59866e-10
-1.9266e-07
-1.64983e-10
0.000261759
-1.58629e-09
0.000267206
5.64852e-10
0.000263022
-0.000269587
2.07694e-07
1.27564e-08
0.000270307
2.06207e-07
0.000267395
1.47433e-08
0.000269613
-9.26157e-09
-1.32849e-07
0.000264675
0.000267542
0.00026974
7.59907e-10
-2.12098e-07
0.000267824
-1.61873e-09
1.89369e-07
3.2836e-10
-0.00026659
-4.87991e-10
0.000267215
-0.000262883
-2.14484e-07
5.8522e-10
0.000263037
6.72302e-10
4.97105e-10
0.000268612
-1.21393e-08
-2.06365e-07
0.000269601
-0.000267418
-2.0772e-07
0.000267565
1.36306e-07
4.84386e-09
-0.000269653
-1.00342e-08
0.000269777
0.00027032
-0.000267886
2.16976e-07
-3.26925e-09
1.39561e-08
0.000268665
2.14702e-07
0.000262966
-1.89185e-09
-7.29801e-10
0.000266605
6.40785e-09
1.41533e-10
-1.92632e-07
-3.20844e-10
0.000261798
-1.50173e-08
3.15048e-09
0.000263121
-3.71902e-09
0.000267233
-0.000269688
1.27595e-08
2.10331e-07
0.000270415
2.08853e-07
0.000267517
1.48182e-08
0.000269738
-1.35315e-07
-6.61592e-09
0.000264796
0.000269863
0.000267669
-0.000267823
-2.76149e-10
2.14507e-07
5.18294e-10
0.000268613
6.0646e-11
0.00026659
2.12055e-07
0.000262883
7.2531e-10
-1.9006e-07
-1.16351e-10
0.000261769
-1.58916e-09
0.000267217
6.27828e-10
0.000263037
-0.000269601
2.0777e-07
1.00771e-08
0.00027032
2.06308e-07
0.000267418
1.20722e-08
0.000269653
-6.77316e-09
-1.32888e-07
0.000264724
0.000267565
0.000269777
1.22633e-07
1.25461e-07
0.000255681
-2.42331e-07
-2.34919e-07
-0.000266487
1.26487e-07
0.000266801
-0.000266114
1.23814e-07
0.000266433
0.000255828
-1.26509e-07
-0.000255681
-1.23835e-07
0.000255828
2.38499e-07
2.4588e-07
0.000269232
0.000266487
-1.25393e-07
-1.22566e-07
0.000266114
0.000266801
0.000266433
3.17165e-09
-2.14705e-07
0.00026787
-1.50538e-08
1.94579e-07
5.62598e-11
-0.000266606
2.19322e-09
0.00026722
-0.000262947
-2.16974e-07
3.13094e-09
0.000263102
-1.93625e-09
1.39532e-08
0.000268643
-1.21021e-08
-2.08889e-07
0.000269663
-0.000267483
-2.10389e-07
0.000267637
1.38807e-07
4.80027e-09
-0.000269692
-1.00339e-08
0.000269817
0.000270394
-0.000267822
-3.23447e-09
2.16964e-07
1.39384e-08
0.000268598
-4.4151e-10
0.000266577
3.93325e-09
2.14659e-07
0.000262875
7.24911e-10
-1.95231e-07
3.67178e-10
3.24822e-11
0.000261757
-1.23169e-08
-1.21549e-09
0.000267197
3.14963e-09
0.00026303
-0.000269611
1.281e-08
2.07792e-07
0.000270341
2.06281e-07
0.000267423
1.47659e-08
0.000269669
-1.32985e-07
-6.76134e-09
0.000264735
0.000269801
0.000267572
-0.00026787
-2.72948e-09
2.17007e-07
1.39719e-08
0.000268644
-2.63521e-09
0.000266606
2.14652e-07
0.000262947
-1.88746e-09
-1.9522e-07
1.34987e-10
0.000261791
-1.50228e-08
0.000267222
3.15713e-09
0.000263102
-0.000269663
2.10444e-07
1.00724e-08
0.000270394
2.08826e-07
0.000267483
1.20374e-08
0.000269692
-6.71368e-09
-1.35455e-07
0.000264743
0.000267638
0.000269817
-0.000255691
-1.26364e-07
-1.26589e-07
0.000255841
2.40826e-07
2.4613e-07
0.000269238
-1.25167e-07
0.000266094
-1.2534e-07
0.000266533
0.00026641
0.000266847
1.14265e-08
4.18124e-09
0.000106011
-0.000106026
1.14376e-08
4.15895e-09
0.000106008
-0.000106024
1.2792e-06
1.2425e-06
0.000267209
-2.34695e-07
-2.42464e-07
-0.000269254
1.47768e-08
-9.06243e-09
3.85515e-08
0.000305158
-0.00030519
1.73178e-08
-9.06859e-09
3.85875e-08
0.000305112
-0.000305147
7.98596e-11
5.39161e-08
-1.8713e-08
5.88618e-10
0.000250166
-0.000250202
3.76938e-08
-3.91947e-09
0.000212216
-0.000212246
5.39448e-08
-1.875e-08
2.4163e-10
0.000250206
-0.000250241
1.38139e-09
1.88303e-09
1.94385e-07
0.000261631
-0.000261774
4.1575e-09
-1.59056e-09
1.28285e-06
-2.86794e-07
2.84839e-07
9.39272e-07
-2.85422e-07
2.83433e-07
-9.39174e-07
-0.00109588
4.73458e-09
1.36234e-07
0.000264649
-0.000264737
2.24684e-09
2.02944e-09
1.00996e-06
-8.22894e-07
-1.00816e-06
8.2329e-07
-0.0010926
8.2219e-10
1.94441e-07
0.000261664
-0.000261804
-3.41305e-09
1.01016e-06
-8.23036e-07
-1.00835e-06
8.23369e-07
-0.00109274
5.66377e-08
1.95762e-10
2.52643e-10
-1.66206e-08
0.000250194
-0.000250234
3.77409e-08
-3.97882e-09
0.000212243
-0.000212272
1.73606e-09
1.3247e-09
1.94419e-07
0.00026165
-0.00026179
-1.12428e-09
-1.4617e-09
1.24622e-06
-2.8406e-07
2.8241e-07
9.39709e-07
-2.91067e-07
2.86493e-07
-9.41822e-07
-0.00109694
7.26776e-09
1.36232e-07
0.00026466
-0.000264748
1.08672e-10
7.09027e-09
1.00725e-06
-8.17368e-07
-1.00816e-06
8.17885e-07
-0.00109251
5.4066e-08
-1.66073e-08
3.53809e-10
0.000250154
-0.000250192
4.00715e-08
-4.17381e-09
-3.96686e-09
0.000212182
-0.000212214
1.91948e-07
6.11279e-10
0.000261621
-0.000261758
9.25794e-09
-1.2792e-06
-1.67678e-09
9.39515e-07
-2.90977e-07
-9.39158e-07
2.86378e-07
1.28303e-06
-2.89576e-07
2.87826e-07
-0.001096
7.10274e-09
1.00455e-06
-8.17512e-07
-1.00548e-06
8.15084e-07
-0.00109247
-1.72369e-08
7.26871e-09
1.36194e-07
0.000264589
-0.000264675
1.3709e-08
0.000105992
-0.00010601
1.23969e-06
0.000267191
-2.37401e-07
-2.42249e-07
-0.00026923
-8.43751e-09
4.08967e-08
0.000305061
-0.000305097
-1.14662e-08
1.47182e-08
-1.12807e-08
4.10363e-08
0.000305165
-0.000305198
4.16345e-09
0.000106003
-0.000106018
1.11802e-09
-5.65482e-08
1.91831e-07
1.33033e-09
0.00026162
-0.000261758
4.06876e-09
-1.44989e-09
1.24326e-06
-2.81197e-07
2.79369e-07
9.36531e-07
-2.90906e-07
-9.36249e-07
2.8632e-07
-0.00109633
-1.56078e-09
1.80575e-09
1.00159e-06
-8.1461e-07
-9.99812e-07
8.1499e-07
-0.00109225
-3.77551e-08
4.7424e-09
1.38675e-07
0.000264644
-0.000264735
-5.40626e-08
1.89283e-07
7.94837e-11
0.000261654
-0.000261788
1.92367e-09
1.00174e-06
-8.14713e-07
-9.99952e-07
8.15121e-07
-0.00109238
3.42157e-11
2.70245e-10
-1.87463e-08
0.000250155
-0.000250193
-3.93116e-09
0.000212199
-0.000212229
3.03164e-10
-1.65966e-08
0.000250192
-0.00025023
-1.06423e-08
-5.021e-09
-1.06207e-08
-4.99423e-09
-0.000237873
6.27831e-09
6.0789e-09
-1.67727e-08
-1.68694e-08
6.50488e-09
8.7472e-05
5.42929e-09
-8.7484e-05
6.68758e-09
8.746e-05
5.39016e-09
-8.74721e-05
1.71414e-08
1.72258e-08
-0.000237894
-5.46309e-09
-5.54031e-09
-0.000241502
2.01884e-08
-2.66872e-08
-5.408e-08
2.03857e-08
0.000200165
-0.000200189
-2.80462e-08
0.000266113
8.2324e-08
3.72891e-08
-0.000266166
9.17828e-09
-3.73056e-08
-1.53e-08
5.2998e-08
-0.000241546
-8.55704e-08
-3.39774e-08
-0.000241445
2.02016e-08
-2.66759e-08
-5.42699e-08
2.03581e-08
0.000200115
-0.000200139
-2.81907e-08
0.000266021
8.4774e-08
4.27029e-08
-0.000266082
9.22119e-09
-3.73065e-08
-1.79604e-08
5.28992e-08
-0.000241489
-8.55396e-08
-3.93601e-08
-0.000157504
6.44811e-10
-1.89427e-08
1.30789e-10
9.11753e-10
0.000188934
-2.15244e-11
-0.000188954
-1.85896e-08
0.000245073
1.48843e-10
5.49042e-08
-0.000245109
1.90374e-08
1.03618e-10
-5.01083e-12
-5.46631e-08
4.91824e-10
-0.000157523
-4.08492e-11
1.29957e-09
-5.63043e-08
-8.51025e-05
-1.71051e-08
-1.78408e-08
0.000290746
5.14572e-08
-0.000290783
1.69063e-09
-3.83109e-08
-8.51198e-05
-5.4545e-08
-0.000157583
7.42248e-10
-1.68233e-08
8.31914e-10
0.000188973
-0.000188992
-1.65793e-08
0.000245167
5.76295e-08
-0.000245208
1.90426e-08
1.43703e-10
-5.46716e-08
-0.000157599
-5.91014e-08
-0.00015758
-1.6918e-08
4.6402e-10
-9.05391e-12
-1.65175e-08
0.000245164
1.32319e-10
5.758e-08
-0.000245205
8.76842e-10
0.000188969
-5.69764e-12
-0.000188986
6.37722e-10
1.69512e-08
-8.24441e-11
-5.74344e-08
6.38591e-10
-0.000157597
1.33814e-09
-5.90927e-08
-1.2743e-11
-8.5151e-05
-1.49685e-08
-1.56979e-08
0.000290875
5.15647e-08
-0.000290914
1.17593e-09
-3.57419e-08
-8.51661e-05
-5.21846e-08
-0.000157499
6.64598e-10
-1.89576e-08
1.15784e-10
8.54724e-10
0.00018893
-0.000188948
-1.86171e-08
0.000245062
1.71347e-10
5.49074e-08
-0.000245099
1.6911e-08
6.96549e-11
-5.47859e-08
4.48155e-10
-0.000157517
1.27753e-09
-5.63226e-08
-8.51011e-05
-1.70731e-08
-1.7851e-08
0.000290736
5.14085e-08
-0.000290774
1.21955e-09
5.00789e-09
-3.81336e-08
-8.51185e-05
-5.19762e-08
-1.29109e-08
-0.000237868
6.18699e-09
6.18231e-09
-1.44266e-08
-1.67063e-08
6.573e-09
8.74554e-05
5.37374e-09
-8.74674e-05
6.60441e-09
8.74741e-05
5.34458e-09
-8.74861e-05
1.47598e-08
1.69548e-08
-0.000237887
-5.46422e-09
-5.47489e-09
-2.66252e-08
-0.000241431
2.22491e-08
-5.40095e-08
2.24232e-08
0.000200106
-0.000200132
0.000265974
-2.81203e-08
4.2656e-08
8.48021e-08
-0.000266033
-3.96842e-08
8.61984e-09
-1.78146e-08
-3.93332e-08
-8.55288e-08
5.26949e-08
-0.000241474
-0.000241503
2.22796e-08
-2.66431e-08
-4.91144e-08
2.2685e-08
0.000200168
-0.000200196
-3.06538e-08
0.000266125
8.22145e-08
3.7349e-08
-0.000266173
8.62552e-09
-3.97045e-08
1.05995e-08
-1.53371e-08
4.77843e-08
-0.000241542
-8.29198e-08
-3.39994e-08
-5.04854e-09
-0.000157501
-1.89473e-08
6.23014e-10
-7.74085e-11
-1.86187e-08
0.000245065
1.16339e-10
5.75011e-08
-0.000245104
8.68393e-10
0.000188928
-2.76121e-11
-0.000188947
3.86442e-10
1.90376e-08
-2.17679e-11
-5.72579e-08
6.78427e-10
-0.00015752
1.32726e-09
-5.89004e-08
-3.29207e-11
-8.51073e-05
-1.494e-08
-1.56641e-08
0.000290744
5.15206e-08
-0.000290783
1.19245e-09
-3.58892e-08
-8.51223e-05
-5.21581e-08
-0.00015758
-1.88974e-08
7.3256e-10
-1.86776e-08
0.000245163
5.75184e-08
-0.000245201
8.22227e-10
0.000188968
-0.000188985
6.60915e-11
1.68766e-08
-5.47562e-08
-0.000157598
-5.8916e-08
-1.91181e-09
-7.22671e-09
-0.00109751
-5.25514e-09
-1.73447e-09
-0.00110177
-2.22674e-10
-5.22886e-09
-0.00110218
-4.59112e-09
-4.90821e-09
-0.00110903
-3.80154e-10
-0.00110182
-2.89547e-09
-0.00110907
3.57789e-09
-2.31369e-09
-0.00109715
-4.11136e-10
-0.00110141
-2.362e-10
-9.70292e-09
-0.00110185
-9.56482e-09
-0.00110846
-1.96068e-10
-0.0011019
-0.00110851
-0.000255699
-1.26369e-07
-1.24128e-07
2.38427e-07
2.4612e-07
-1.25186e-07
0.000266099
-0.000266413
-1.22902e-07
0.000266538
-0.000266857
-0.000255841
-0.000267832
2.14534e-07
-1.9195e-09
3.28155e-09
2.11978e-07
0.000262888
7.86042e-10
-0.000263044
1.02919e-09
0.000266591
4.63117e-09
-0.000267225
1.12174e-10
-1.95294e-07
-1.33218e-10
-4.36369e-09
-0.000268622
6.29741e-10
-2.14278e-09
1.00391e-08
-0.000269606
2.05154e-07
2.038e-07
0.000267424
-0.000267571
0.000269661
1.21838e-08
-0.000269785
-1.3289e-07
-6.81469e-09
-0.000270334
-0.000267884
2.14604e-07
-3.3839e-10
2.12039e-07
0.000262958
-0.000263112
-2.07265e-10
0.000266619
-0.000267243
-3.65729e-10
-1.9531e-07
-0.000268676
-0.000267879
2.17061e-07
-4.33647e-09
1.92798e-08
2.14621e-07
0.000262953
-1.9329e-09
-0.000263107
-1.2253e-09
0.000266603
6.83745e-09
-0.000267232
6.17369e-10
-1.92724e-07
-4.93528e-10
-1.75441e-08
-0.000268656
3.06784e-09
-4.65329e-09
1.00649e-08
-0.000269669
2.07917e-07
2.0618e-07
0.000267491
-0.00026764
0.000269695
1.47256e-08
-0.000269822
-1.32949e-07
-6.73923e-09
-0.000270407
-0.000267814
2.19871e-11
2.14493e-07
5.30409e-10
-1.61366e-10
0.000266588
-0.000267207