/*--------------------------------*- C++ -*----------------------------------*\
| =========                 |                                                 |
| \\      /  F ield         | OpenFOAM: The Open Source CFD Toolbox           |
|  \\    /   O peration     | Version:  v1912                                 |
|   \\  /    A nd           | Website:  www.openfoam.com                      |
|    \\/     M anipulation  |                                                 |
\*---------------------------------------------------------------------------*/
FoamFile
{
    version     2.0;
    format      ascii;
    class       volVectorField;
    location    "40";
    object      U;
}
// * * * * * * * * * * * * * * * * * * * * * * * * * * * * * * * * * * * * * //

dimensions      [0 1 -1 0 0 0 0];


internalField   nonuniform List<vector> 
57566
(
(-3.09196e-06 2.18239e-06 0.0774192)
(1.89707e-07 1.95703e-05 0.103108)
(1.10023e-06 -7.27234e-07 0.104117)
(-2.23434e-07 -9.06338e-07 0.104216)
(-5.18388e-06 1.74022e-05 0.10035)
(5.2503e-05 5.25254e-05 0.103931)
(4.99142e-06 5.70381e-06 0.0960731)
(5.70015e-06 4.98341e-06 0.0960714)
(2.20067e-06 3.59514e-06 0.077381)
(3.64999e-06 2.28122e-06 0.0773812)
(4.96754e-05 4.96996e-05 0.10392)
(5.77781e-06 5.35226e-06 0.0960323)
(5.37031e-06 5.84003e-06 0.096031)
(-1.30994e-07 1.01373e-05 0.0996939)
(5.72673e-07 7.34922e-06 0.0901423)
(1.19911e-07 1.01466e-05 0.0996941)
(-5.83981e-07 7.41743e-06 0.0901439)
(-1.93711e-07 1.98485e-05 0.103092)
(1.19311e-06 8.02488e-07 0.104117)
(4.59948e-06 1.84481e-05 0.100305)
(-1.94593e-07 9.32688e-07 0.104216)
(1.95481e-07 1.98546e-05 0.103092)
(-1.13646e-06 7.75387e-07 0.104117)
(-4.64187e-06 1.84973e-05 0.100305)
(2.20771e-07 9.28124e-07 0.104216)
(-2.28303e-06 3.70161e-06 0.0773828)
(-4.96944e-05 4.96621e-05 0.10392)
(-5.85913e-06 5.42621e-06 0.0960321)
(-5.2946e-06 5.74807e-06 0.0960318)
(-3.56709e-06 2.20162e-06 0.0773805)
(-1.04459e-05 -1.06317e-07 0.0997221)
(-6.80898e-06 1.29613e-06 0.0901796)
(-1.95707e-05 -2.00652e-07 0.103108)
(7.62948e-07 -1.12993e-06 0.104117)
(9.14107e-07 2.05911e-07 0.104216)
(-1.73388e-05 5.13753e-06 0.10035)
(1.02004e-05 -1.09091e-07 0.0996945)
(7.38147e-06 5.87239e-07 0.0901431)
(1.98422e-05 -1.95198e-07 0.103092)
(7.64889e-07 1.06881e-06 0.104117)
(1.84424e-05 4.65179e-06 0.100305)
(9.18239e-07 -2.41867e-07 0.104216)
(1.01833e-05 1.56947e-07 0.0996945)
(7.31337e-06 -5.68678e-07 0.0901416)
(1.98287e-05 2.10797e-07 0.103092)
(7.70431e-07 -1.13888e-06 0.104117)
(9.24069e-07 2.0293e-07 0.104216)
(1.84081e-05 -4.62638e-06 0.100304)
(1.95506e-05 -1.89781e-07 0.103108)
(-7.58315e-07 -1.12979e-06 0.104117)
(-9.23628e-07 2.03878e-07 0.104216)
(1.73768e-05 5.17205e-06 0.10035)
(1.03858e-05 -8.45453e-08 0.0997232)
(6.88062e-06 1.32557e-06 0.0901788)
(-1.98345e-05 -1.97906e-07 0.103092)
(-7.34295e-07 1.10593e-06 0.104118)
(-1.84083e-05 4.60227e-06 0.100305)
(-9.21896e-07 -2.22556e-07 0.104216)
(-1.01326e-05 -1.09941e-07 0.099694)
(-7.33783e-06 5.70164e-07 0.0901431)
(-1.98294e-05 1.99361e-07 0.103092)
(-7.62175e-07 -1.13537e-06 0.104117)
(-9.2899e-07 2.02903e-07 0.104216)
(-1.84523e-05 -4.66346e-06 0.100305)
(-1.01254e-05 1.36445e-07 0.0996939)
(-7.39563e-06 -5.8477e-07 0.0901433)
(-5.24993e-05 5.25324e-05 0.103931)
(-4.91376e-06 5.66991e-06 0.0960733)
(-5.72736e-06 4.99568e-06 0.0960728)
(-2.25489e-06 3.21197e-06 0.0774183)
(3.53634e-06 -2.18789e-06 0.0773787)
(4.96712e-05 -4.97249e-05 0.103919)
(5.35851e-06 -5.81595e-06 0.0960297)
(5.8559e-06 -5.43126e-06 0.0960331)
(2.26061e-06 -3.65197e-06 0.0773827)
(-1.88147e-07 1.95571e-05 0.103108)
(-1.09734e-06 -7.32383e-07 0.104117)
(2.1552e-07 -9.09974e-07 0.104216)
(5.17095e-06 1.74092e-05 0.10035)
(7.83814e-08 1.04384e-05 0.099722)
(-1.32758e-06 6.88248e-06 0.0901788)
(-7.89064e-08 1.04349e-05 0.0997223)
(1.32303e-06 6.88218e-06 0.0901789)
(-2.03113e-07 -1.98229e-05 0.103092)
(1.10975e-06 -7.36991e-07 0.104117)
(-2.22956e-07 -9.239e-07 0.104216)
(4.65861e-06 -1.84535e-05 0.100306)
(2.06832e-07 -1.98284e-05 0.103092)
(-1.10342e-06 -7.35797e-07 0.104117)
(2.15524e-07 -9.17935e-07 0.104216)
(-4.65594e-06 -1.8461e-05 0.100305)
(-1.3143e-07 -1.01793e-05 0.0996946)
(5.86354e-07 -7.39661e-06 0.0901433)
(1.33508e-07 -1.01805e-05 0.0996944)
(-5.86489e-07 -7.3948e-06 0.0901435)
(3.22104e-06 2.24596e-06 0.0774182)
(2.24528e-06 3.21953e-06 0.077417)
(-4.97039e-05 -4.97184e-05 0.10392)
(-5.43542e-06 -5.87589e-06 0.0960328)
(-5.86246e-06 -5.43045e-06 0.0960317)
(-3.6518e-06 -2.26428e-06 0.0773825)
(-2.26059e-06 -3.64815e-06 0.0773814)
(3.5764e-06 -2.2093e-06 0.0773791)
(-3.61908e-06 -3.63003e-06 0.0930447)
(1.45229e-06 1.98589e-06 0.0742328)
(2.00087e-06 1.44855e-06 0.0742269)
(-1.91085e-06 -2.16763e-06 0.0741976)
(-2.16595e-06 -1.92202e-06 0.0741919)
(3.92283e-06 3.9136e-06 0.0930865)
(-1.26068e-05 -6.14543e-06 0.0997685)
(3.31083e-06 2.17292e-06 0.0892201)
(-5.41841e-06 -5.864e-06 0.0960327)
(1.95276e-05 1.07859e-05 0.10223)
(-1.99796e-05 -1.17315e-05 0.102206)
(-3.75972e-06 -2.2906e-06 0.0891868)
(1.27246e-05 5.86229e-06 0.0998036)
(-6.16218e-06 -1.26392e-05 0.0997655)
(2.21068e-06 3.34287e-06 0.0892152)
(-5.84943e-06 -5.41403e-06 0.0960316)
(1.08175e-05 1.95181e-05 0.102229)
(-1.17268e-05 -1.99532e-05 0.102205)
(-2.30768e-06 -3.80039e-06 0.089183)
(5.91285e-06 1.27452e-05 0.0998001)
(-2.1835e-06 -3.09556e-06 0.0774205)
(-3.20695e-06 -2.21629e-06 0.0774181)
(-3.8688e-06 -3.89896e-06 0.0930872)
(2.17191e-06 1.91e-06 0.0741989)
(1.87283e-06 2.10381e-06 0.0741903)
(3.62664e-06 3.60699e-06 0.0930442)
(-1.99209e-06 -1.47249e-06 0.074233)
(-1.46294e-06 -1.97463e-06 0.0742281)
(-5.86469e-06 -1.2812e-05 0.0998011)
(2.32494e-06 3.76712e-06 0.0891882)
(1.17482e-05 1.99419e-05 0.102207)
(-5.60977e-06 -4.83647e-06 0.0960748)
(6.23029e-06 1.26795e-05 0.0997708)
(-2.19805e-06 -3.33964e-06 0.0892194)
(-1.07403e-05 -1.94751e-05 0.102229)
(-1.27091e-05 -5.90627e-06 0.0998031)
(3.69382e-06 2.21289e-06 0.0891813)
(1.99433e-05 1.16955e-05 0.102204)
(-5.02934e-06 -5.70958e-06 0.0960723)
(1.25947e-05 6.07072e-06 0.0997629)
(-3.31037e-06 -2.17476e-06 0.0892168)
(-1.96016e-05 -1.08648e-05 0.10223)
(7.02896e-07 -3.16779e-06 0.0845166)
(-1.54685e-07 3.26233e-06 0.0868767)
(-3.15519e-07 9.97644e-06 0.0986631)
(9.47534e-08 -1.0374e-05 0.0997233)
(-7.44841e-07 3.53679e-06 0.0844897)
(1.50698e-07 -2.99158e-06 0.0868979)
(3.56752e-08 -1.0365e-05 0.0987001)
(6.78356e-07 -2.95642e-06 0.0735189)
(-2.54628e-07 7.4621e-06 0.094821)
(-1.3108e-06 -6.81414e-06 0.09018)
(-1.04179e-06 3.43964e-06 0.0734722)
(-6.63447e-07 -7.81471e-06 0.0948729)
(-6.93457e-07 -3.23512e-06 0.0845167)
(1.56648e-07 3.2663e-06 0.0868771)
(2.89341e-07 1.0028e-05 0.098664)
(-7.28773e-08 -1.03829e-05 0.0997232)
(7.48539e-07 3.59245e-06 0.0844919)
(-1.48884e-07 -3.00116e-06 0.0868979)
(-5.08012e-09 -1.04307e-05 0.0986991)
(-6.47892e-07 -3.04178e-06 0.0735163)
(2.32595e-07 7.52035e-06 0.0948221)
(1.3233e-06 -6.88651e-06 0.0901792)
(1.01185e-06 3.52663e-06 0.0734737)
(6.93828e-07 -7.88567e-06 0.0948706)
(2.25663e-06 -3.22965e-06 0.077418)
(3.89251e-06 -3.89233e-06 0.0930867)
(-2.14046e-06 1.87263e-06 0.0741926)
(-1.88032e-06 2.10934e-06 0.0741975)
(-3.66342e-06 3.64377e-06 0.0930449)
(1.99985e-06 -1.47625e-06 0.0742279)
(1.47612e-06 -1.98682e-06 0.0742328)
(5.87016e-06 -1.27175e-05 0.0998008)
(-2.25629e-06 3.73057e-06 0.0891828)
(-1.17445e-05 1.99833e-05 0.102205)
(5.71292e-06 -5.00155e-06 0.096072)
(1.07802e-05 -1.95456e-05 0.102229)
(-6.15131e-06 1.25963e-05 0.0997653)
(2.19275e-06 -3.34466e-06 0.0892161)
(1.2764e-05 -5.90214e-06 0.0998037)
(-3.70131e-06 2.22503e-06 0.0891869)
(-1.99374e-05 1.1714e-05 0.102206)
(4.85793e-06 -5.59402e-06 0.0960755)
(-1.26317e-05 6.14722e-06 0.0997688)
(3.3095e-06 -2.16771e-06 0.0892206)
(1.95331e-05 -1.07952e-05 0.10223)
(3.08882e-06 -2.17594e-06 0.0774204)
(3.51494e-06 7.30895e-07 0.0844892)
(1.01962e-05 1.27781e-07 0.0996944)
(-3.07283e-06 -1.53471e-07 0.0868967)
(-1.03577e-05 -5.72518e-08 0.0986999)
(3.34556e-06 1.24452e-07 0.0868776)
(9.95431e-06 3.21274e-07 0.0986625)
(-3.14679e-06 -6.98733e-07 0.0845169)
(3.37445e-06 1.06998e-06 0.0734718)
(-7.79239e-06 6.48497e-07 0.0948727)
(7.32484e-06 -5.80304e-07 0.0901416)
(7.45409e-06 2.6506e-07 0.0948198)
(-2.91011e-06 -6.90732e-07 0.0735207)
(-3.23596e-06 7.0921e-07 0.0845165)
(1.0027e-05 -2.83729e-07 0.0986639)
(3.36031e-06 -1.28157e-07 0.086878)
(-1.0451e-05 8.85526e-08 0.0997222)
(3.60922e-06 -7.225e-07 0.0844919)
(-1.04258e-05 3.98049e-08 0.0986991)
(-3.07493e-06 1.61598e-07 0.0868969)
(-3.03568e-06 6.71912e-07 0.0735153)
(7.50764e-06 -2.15694e-07 0.0948224)
(-6.87054e-06 -1.30109e-06 0.0901795)
(3.53079e-06 -9.84345e-07 0.0734727)
(-7.89615e-06 -6.62515e-07 0.0948712)
(-3.20504e-06 -6.88921e-07 0.0845168)
(3.30523e-06 1.6389e-07 0.0868775)
(9.96582e-06 3.34226e-07 0.0986626)
(-1.04509e-05 -8.6125e-08 0.0997222)
(3.4793e-06 7.27059e-07 0.084489)
(-3.11407e-06 -1.13192e-07 0.0868968)
(-1.03585e-05 -4.81478e-08 0.0987001)
(-2.94976e-06 -6.8983e-07 0.07352)
(7.50971e-06 2.77248e-07 0.09482)
(-6.82458e-06 1.30779e-06 0.0901796)
(3.36621e-06 1.05045e-06 0.073471)
(-7.77563e-06 6.51698e-07 0.094873)
(-3.59898e-06 7.33142e-07 0.084491)
(-1.01368e-05 1.10652e-07 0.0996939)
(2.9993e-06 -1.6482e-07 0.0868976)
(1.04278e-05 -1.38186e-08 0.0986989)
(-3.27072e-06 1.38364e-07 0.0868768)
(-1.00229e-05 2.7774e-07 0.0986632)
(3.22473e-06 -7.00136e-07 0.0845159)
(-3.53023e-06 1.01384e-06 0.0734765)
(7.87183e-06 6.95202e-07 0.0948708)
(-7.40964e-06 -5.92926e-07 0.0901433)
(-7.53029e-06 2.23498e-07 0.0948214)
(3.03726e-06 -6.46678e-07 0.0735193)
(3.23057e-06 7.0609e-07 0.0845169)
(-1.00186e-05 -2.76329e-07 0.0986638)
(-3.27177e-06 -1.33442e-07 0.0868769)
(1.03832e-05 8.54733e-08 0.0997233)
(-3.594e-06 -7.32962e-07 0.084492)
(1.04137e-05 2.6699e-08 0.0986995)
(2.99662e-06 1.68358e-07 0.0868978)
(3.04683e-06 6.63441e-07 0.0735171)
(-7.50417e-06 -2.2134e-07 0.0948219)
(6.81779e-06 -1.30395e-06 0.0901804)
(-3.52309e-06 -9.92015e-07 0.0734742)
(7.87935e-06 -6.68554e-07 0.0948716)
(3.28068e-06 -6.89563e-07 0.0845158)
(-3.2385e-06 1.7055e-07 0.0868767)
(-1.00365e-05 2.92395e-07 0.0986633)
(1.03926e-05 -6.3979e-08 0.0997233)
(-3.56682e-06 7.30431e-07 0.0844908)
(3.03244e-06 -1.27084e-07 0.0868976)
(1.0432e-05 -4.02535e-10 0.0986991)
(3.08839e-06 -6.37785e-07 0.0735186)
(-7.57585e-06 2.35634e-07 0.0948216)
(6.89817e-06 1.33261e-06 0.0901789)
(-3.50752e-06 1.00529e-06 0.0734756)
(7.85868e-06 6.99381e-07 0.0948711)
(3.61925e-06 -3.63339e-06 0.0930445)
(-1.47851e-06 2.0195e-06 0.0742265)
(-2.01922e-06 1.4736e-06 0.0742324)
(1.89384e-06 -2.14208e-06 0.0741911)
(2.14023e-06 -1.90357e-06 0.0741971)
(-3.9132e-06 3.92074e-06 0.0930865)
(1.25912e-05 -6.15293e-06 0.099765)
(-3.32328e-06 2.20393e-06 0.0892156)
(5.35253e-06 -5.80244e-06 0.0960296)
(-1.95312e-05 1.07989e-05 0.10223)
(3.74048e-06 -2.27442e-06 0.0891816)
(1.99574e-05 -1.17253e-05 0.102205)
(-1.27348e-05 5.89961e-06 0.0998005)
(6.11055e-06 -1.26211e-05 0.0997683)
(-2.20784e-06 3.3247e-06 0.08922)
(5.8424e-06 -5.42287e-06 0.096033)
(-1.08127e-05 1.95296e-05 0.10223)
(1.17076e-05 -1.99508e-05 0.102206)
(2.25326e-06 -3.75879e-06 0.0891868)
(-5.8821e-06 1.27362e-05 0.0998038)
(2.28717e-06 -3.70546e-06 0.0773831)
(-3.14361e-06 2.20885e-06 0.0774189)
(-3.84575e-06 3.85405e-06 0.0930868)
(1.878e-06 -2.13149e-06 0.0741905)
(2.1297e-06 -1.88486e-06 0.0741965)
(3.72531e-06 -3.73744e-06 0.0930448)
(-1.52581e-06 2.04227e-06 0.074226)
(-2.04157e-06 1.52331e-06 0.0742319)
(-1.27512e-05 5.90264e-06 0.0998007)
(3.74096e-06 -2.27511e-06 0.0891815)
(1.99375e-05 -1.16888e-05 0.102205)
(-4.92346e-06 5.66887e-06 0.0960735)
(-1.95583e-05 1.08162e-05 0.10223)
(1.25977e-05 -6.15309e-06 0.0997651)
(-3.34849e-06 2.22328e-06 0.0892156)
(-5.88422e-06 1.27541e-05 0.099804)
(2.2568e-06 -3.75854e-06 0.0891867)
(1.16724e-05 -1.99283e-05 0.102206)
(-5.72278e-06 4.99927e-06 0.096073)
(6.11108e-06 -1.26251e-05 0.0997685)
(-2.22343e-06 3.3496e-06 0.08922)
(-1.08285e-05 1.95597e-05 0.10223)
(-2.28374e-06 3.27489e-06 0.077418)
(-7.31127e-07 -3.60914e-06 0.0844912)
(-1.27378e-07 -1.02071e-05 0.0996945)
(3.06525e-08 1.04179e-05 0.0986988)
(1.40287e-07 3.07623e-06 0.0868966)
(-2.89404e-07 -1.00284e-05 0.0986633)
(-1.46415e-07 -3.35487e-06 0.0868778)
(6.93926e-07 3.23217e-06 0.0845158)
(-1.00439e-06 -3.52857e-06 0.0734768)
(-6.82919e-07 7.87693e-06 0.0948709)
(5.88702e-07 -7.41064e-06 0.0901434)
(-2.19623e-07 -7.52993e-06 0.0948215)
(6.55341e-07 3.04116e-06 0.0735197)
(7.31336e-07 -3.60704e-06 0.0844921)
(1.29226e-07 -1.02068e-05 0.0996944)
(-3.34877e-08 1.04133e-05 0.0986991)
(-1.37614e-07 3.07574e-06 0.0868968)
(2.84539e-07 -1.00272e-05 0.0986637)
(1.48319e-07 -3.35606e-06 0.086878)
(-6.94091e-07 3.23058e-06 0.0845167)
(1.00365e-06 -3.52395e-06 0.0734743)
(6.79073e-07 7.88013e-06 0.0948707)
(-5.89215e-07 -7.40929e-06 0.0901435)
(2.19141e-07 -7.53021e-06 0.0948221)
(-6.55188e-07 3.04056e-06 0.0735169)
(6.97615e-07 3.2904e-06 0.0845158)
(-2.94685e-07 -1.00386e-05 0.0986634)
(-1.43672e-07 -3.31096e-06 0.0868777)
(7.80031e-08 1.0454e-05 0.0997221)
(-7.1664e-07 -3.57613e-06 0.084491)
(2.54654e-08 1.04236e-05 0.098699)
(1.40894e-07 3.12561e-06 0.0868967)
(6.53447e-07 3.09278e-06 0.0735189)
(-2.27719e-07 -7.57362e-06 0.0948216)
(-1.32886e-06 6.90348e-06 0.0901789)
(-9.91424e-07 -3.5058e-06 0.073476)
(-6.82301e-07 7.86662e-06 0.0948712)
(-6.99995e-07 3.2875e-06 0.0845167)
(2.90101e-07 -1.0038e-05 0.0986638)
(1.45395e-07 -3.31327e-06 0.0868779)
(-7.58982e-08 1.04495e-05 0.0997224)
(7.13524e-07 -3.57523e-06 0.0844919)
(-2.69219e-08 1.042e-05 0.0986993)
(-1.35623e-07 3.12523e-06 0.0868969)
(-6.54025e-07 3.08954e-06 0.0735161)
(2.27263e-07 -7.57237e-06 0.0948223)
(1.32505e-06 6.90058e-06 0.090179)
(9.90328e-07 -3.50098e-06 0.0734734)
(6.7969e-07 7.86986e-06 0.094871)
(-3.70428e-06 -2.29274e-06 0.0773829)
(-2.28786e-06 -3.70185e-06 0.0773818)
(3.87777e-06 3.86775e-06 0.0930869)
(-1.9144e-06 -2.17102e-06 0.0741968)
(-2.16775e-06 -1.92551e-06 0.0741911)
(-3.70208e-06 -3.7129e-06 0.093045)
(1.49444e-06 2.01154e-06 0.074232)
(2.02753e-06 1.49194e-06 0.0742262)
(1.27442e-05 5.87599e-06 0.0998038)
(-3.77869e-06 -2.30562e-06 0.0891866)
(-1.99601e-05 -1.16855e-05 0.102206)
(4.98597e-06 5.70982e-06 0.0960733)
(-1.26136e-05 -6.13946e-06 0.0997687)
(1.95552e-05 1.08173e-05 0.10223)
(3.32542e-06 2.1894e-06 0.08922)
(5.92603e-06 1.27667e-05 0.0998003)
(-2.32479e-06 -3.81925e-06 0.0891829)
(-1.16806e-05 -1.99326e-05 0.102205)
(5.70406e-06 4.98062e-06 0.0960716)
(-6.15588e-06 -1.2643e-05 0.0997657)
(1.08481e-05 1.95476e-05 0.102229)
(2.2249e-06 3.35781e-06 0.0892151)
(3.28007e-06 2.27912e-06 0.0774179)
(2.27673e-06 3.2802e-06 0.0774167)
(-9.82756e-07 9.94801e-07 0.104265)
(-4.28112e-07 -4.97153e-07 0.104299)
(5.03587e-07 4.2968e-07 0.104299)
(4.21773e-07 -4.22825e-07 0.104316)
(9.81768e-07 9.7853e-07 0.104265)
(4.38416e-07 -5.09211e-07 0.104299)
(-5.03685e-07 4.35253e-07 0.104299)
(-4.1939e-07 -4.16921e-07 0.104316)
(-9.86036e-07 -9.77282e-07 0.104265)
(4.81834e-07 -4.25946e-07 0.104299)
(-4.33866e-07 4.65947e-07 0.104299)
(4.31615e-07 4.0959e-07 0.104316)
(9.80079e-07 -9.81256e-07 0.104265)
(-5.17796e-07 -4.28738e-07 0.104299)
(4.35006e-07 5.03383e-07 0.104299)
(-4.18912e-07 4.12102e-07 0.104316)
(-9.815e-07 9.93963e-07 0.104265)
(-4.2493e-07 -4.97942e-07 0.104299)
(5.0557e-07 4.26987e-07 0.104299)
(4.27285e-07 -4.24245e-07 0.104316)
(9.82163e-07 9.8123e-07 0.104265)
(4.33254e-07 -5.10069e-07 0.104299)
(-5.04208e-07 4.30643e-07 0.104299)
(-4.23985e-07 -4.23304e-07 0.104316)
(2.44801e-07 -6.4177e-05 0.103778)
(-1.97521e-07 -1.98543e-05 0.103092)
(2.48879e-07 6.23059e-05 0.103872)
(3.89674e-07 2.06618e-05 0.102852)
(-1.87041e-07 -6.13614e-05 0.103862)
(-5.09912e-07 -2.05153e-05 0.10283)
(7.01251e-09 6.5888e-05 0.103793)
(1.7852e-06 -7.18336e-05 0.103552)
(-6.22043e-07 2.11478e-05 0.102054)
(4.65336e-06 -1.84753e-05 0.100305)
(-4.84017e-06 7.54259e-05 0.103147)
(5.92508e-06 -7.70044e-05 0.103124)
(-1.98145e-07 -2.11257e-05 0.102018)
(-1.29368e-06 7.29291e-05 0.103572)
(-1.7364e-05 -1.73807e-05 0.102715)
(-4.97015e-05 -4.97174e-05 0.10392)
(1.83238e-05 5.8505e-05 0.103566)
(5.84743e-05 1.83211e-05 0.103566)
(-1.82295e-05 -5.83062e-05 0.103552)
(-5.82564e-05 -1.82266e-05 0.103552)
(1.79406e-05 1.79326e-05 0.102737)
(-1.78424e-05 -1.80413e-05 0.102737)
(-5.24925e-05 -5.25417e-05 0.103931)
(5.82615e-05 1.82044e-05 0.103552)
(1.82248e-05 5.8235e-05 0.103551)
(1.73795e-05 1.73665e-05 0.102714)
(-5.84938e-05 -1.83871e-05 0.103565)
(-1.82809e-05 -5.84555e-05 0.103566)
(-4.33986e-09 -6.59162e-05 0.103793)
(-5.19328e-07 2.05191e-05 0.10283)
(-1.88474e-07 6.13227e-05 0.103862)
(1.91821e-07 -1.9553e-05 0.103108)
(2.49587e-07 6.41413e-05 0.103778)
(3.77425e-07 -2.06583e-05 0.102852)
(2.5962e-07 -6.23193e-05 0.103873)
(-1.35016e-06 -7.29424e-05 0.103573)
(-2.30113e-07 2.11187e-05 0.102019)
(5.90678e-06 7.70293e-05 0.103124)
(-5.1502e-06 -1.72479e-05 0.100351)
(-4.84601e-06 -7.54076e-05 0.103147)
(1.77673e-06 7.18318e-05 0.103552)
(-6.28517e-07 -2.10922e-05 0.102054)
(-4.23687e-09 -6.5934e-05 0.103793)
(5.14272e-07 2.05327e-05 0.10283)
(1.94174e-07 6.13335e-05 0.103862)
(-1.85848e-07 -1.95566e-05 0.103108)
(-2.42741e-07 6.41369e-05 0.103778)
(-3.60792e-07 -2.07011e-05 0.102852)
(-2.73829e-07 -6.23129e-05 0.103873)
(1.29757e-06 -7.29145e-05 0.103572)
(2.20227e-07 2.11373e-05 0.102019)
(-5.91845e-06 7.70605e-05 0.103123)
(5.17912e-06 -1.73918e-05 0.100349)
(-1.78828e-06 7.1858e-05 0.103552)
(6.45897e-07 -2.11453e-05 0.102053)
(4.79551e-06 -7.54203e-05 0.103146)
(1.79501e-05 -1.79294e-05 0.102738)
(5.25302e-05 -5.24914e-05 0.103931)
(-5.82776e-05 1.82232e-05 0.103552)
(-1.82379e-05 5.82573e-05 0.103552)
(5.84758e-05 -1.83153e-05 0.103566)
(-1.74095e-05 1.73588e-05 0.102715)
(1.83463e-05 -5.84853e-05 0.103566)
(6.4154e-05 -2.40913e-07 0.103778)
(1.98473e-05 2.04193e-07 0.103092)
(-6.23033e-05 -2.69295e-07 0.103872)
(-2.06776e-05 -3.90073e-07 0.102852)
(6.13526e-05 2.0121e-07 0.103862)
(2.05045e-05 5.25186e-07 0.10283)
(-6.59069e-05 -8.99751e-09 0.103793)
(7.18562e-05 -1.78027e-06 0.103552)
(-2.11173e-05 6.1978e-07 0.102054)
(1.8428e-05 -4.62376e-06 0.100304)
(-7.54148e-05 4.79222e-06 0.103147)
(2.11043e-05 2.15534e-07 0.102018)
(-7.29051e-05 1.28738e-06 0.103572)
(7.70367e-05 -5.90308e-06 0.103123)
(-6.58866e-05 3.37394e-08 0.103793)
(2.05033e-05 -5.07438e-07 0.10283)
(6.13447e-05 -1.98562e-07 0.103862)
(-1.95754e-05 1.86301e-07 0.103108)
(6.41735e-05 2.40851e-07 0.103778)
(-2.06858e-05 3.94959e-07 0.102852)
(-6.2308e-05 2.54691e-07 0.103873)
(-7.29312e-05 -1.227e-06 0.103572)
(2.11052e-05 -1.96203e-07 0.102019)
(7.70381e-05 5.92538e-06 0.103123)
(-1.74681e-05 -5.16759e-06 0.10035)
(-7.54235e-05 -4.79159e-06 0.103147)
(7.18164e-05 1.79134e-06 0.103552)
(-2.12055e-05 -6.14636e-07 0.102053)
(-6.59163e-05 -4.90727e-09 0.103792)
(6.135e-05 1.86128e-07 0.103862)
(2.04726e-05 5.47629e-07 0.10283)
(-1.9587e-05 -1.99305e-07 0.103108)
(6.4144e-05 -2.40921e-07 0.103778)
(-6.23046e-05 -2.72631e-07 0.103872)
(-2.07039e-05 -3.7368e-07 0.102852)
(-7.2921e-05 1.2962e-06 0.103572)
(2.10777e-05 2.31685e-07 0.102019)
(7.70142e-05 -5.87441e-06 0.103123)
(-1.73597e-05 5.14142e-06 0.10035)
(7.18284e-05 -1.76611e-06 0.103552)
(-2.11496e-05 6.35271e-07 0.102054)
(-7.54302e-05 4.80585e-06 0.103147)
(-6.41443e-05 -2.5576e-07 0.103778)
(-1.98434e-05 1.94625e-07 0.103092)
(6.23033e-05 -2.71774e-07 0.103873)
(2.06835e-05 -3.68822e-07 0.102852)
(-6.13352e-05 1.85464e-07 0.103862)
(-2.05149e-05 5.06752e-07 0.10283)
(6.59155e-05 -2.15341e-09 0.103793)
(-7.18642e-05 -1.79908e-06 0.103552)
(2.11176e-05 6.40549e-07 0.102054)
(-1.84707e-05 -4.6576e-06 0.100305)
(7.53987e-05 4.81297e-06 0.103147)
(-7.70416e-05 -5.92759e-06 0.103124)
(-2.11193e-05 1.99269e-07 0.102018)
(7.29028e-05 1.30906e-06 0.103572)
(6.58858e-05 9.30809e-09 0.103793)
(-2.05136e-05 -5.142e-07 0.10283)
(-6.13262e-05 -2.04852e-07 0.103862)
(1.95607e-05 1.75706e-07 0.103108)
(-6.41644e-05 2.32359e-07 0.103778)
(2.06648e-05 3.77625e-07 0.102852)
(6.23074e-05 2.48858e-07 0.103873)
(7.29164e-05 -1.28995e-06 0.103573)
(-2.11116e-05 -2.19442e-07 0.102019)
(-7.70079e-05 5.92543e-06 0.103124)
(1.73443e-05 -5.13053e-06 0.100351)
(-7.18303e-05 1.7802e-06 0.103552)
(7.54025e-05 -4.82907e-06 0.103147)
(2.11551e-05 -6.12347e-07 0.102054)
(6.5924e-05 2.20626e-09 0.103793)
(-6.13341e-05 1.70274e-07 0.103862)
(-2.04841e-05 5.33755e-07 0.10283)
(1.95644e-05 -1.87439e-07 0.103108)
(-6.41352e-05 -2.53343e-07 0.103778)
(6.23048e-05 -2.7642e-07 0.103872)
(2.07094e-05 -3.48562e-07 0.102852)
(7.29245e-05 1.32005e-06 0.103572)
(-2.1097e-05 2.17012e-07 0.102018)
(-7.70187e-05 -5.89943e-06 0.103123)
(1.73961e-05 5.17314e-06 0.10035)
(-7.18344e-05 -1.7814e-06 0.103552)
(2.11528e-05 6.58328e-07 0.102054)
(7.54176e-05 4.83095e-06 0.103147)
(1.73282e-05 -1.74109e-05 0.102714)
(4.96679e-05 -4.97216e-05 0.10392)
(-1.82996e-05 5.84736e-05 0.103566)
(-5.84976e-05 1.83402e-05 0.103566)
(5.82501e-05 -1.82359e-05 0.103552)
(1.82046e-05 -5.82936e-05 0.103552)
(-1.79243e-05 1.79545e-05 0.102737)
(-1.79501e-05 1.79816e-05 0.102737)
(-5.24909e-05 5.25239e-05 0.103931)
(1.81814e-05 -5.82823e-05 0.103552)
(5.82382e-05 -1.82117e-05 0.103552)
(-1.83111e-05 5.84692e-05 0.103566)
(1.72804e-05 -1.73621e-05 0.102714)
(-5.84937e-05 1.83531e-05 0.103566)
(-2.35057e-07 -6.41823e-05 0.103778)
(2.01606e-07 -1.98585e-05 0.103092)
(-2.59714e-07 6.22922e-05 0.103873)
(-3.96105e-07 2.06618e-05 0.102852)
(1.88792e-07 -6.13719e-05 0.103862)
(5.04823e-07 -2.05176e-05 0.10283)
(-2.53329e-08 6.58851e-05 0.103793)
(-1.77031e-06 -7.18349e-05 0.103552)
(6.15706e-07 2.11754e-05 0.102053)
(-4.64899e-06 -1.84798e-05 0.100305)
(4.82851e-06 7.54195e-05 0.103147)
(-5.92171e-06 -7.70341e-05 0.103123)
(2.00616e-07 -2.113e-05 0.102019)
(1.28212e-06 7.29366e-05 0.103572)
(6.66223e-09 6.58996e-05 0.103793)
(-1.89508e-07 -6.13522e-05 0.103862)
(-5.34793e-07 -2.04813e-05 0.10283)
(1.86974e-07 1.95958e-05 0.103108)
(2.37984e-07 -6.41642e-05 0.103778)
(2.52294e-07 6.23132e-05 0.103872)
(3.75322e-07 2.06953e-05 0.102852)
(-1.30094e-06 7.29509e-05 0.103572)
(-2.13292e-07 -2.10998e-05 0.102019)
(5.90178e-06 -7.69795e-05 0.103124)
(-5.18511e-06 1.74262e-05 0.10035)
(1.77329e-06 -7.18022e-05 0.103552)
(-4.85248e-06 7.5445e-05 0.103147)
(-6.34542e-07 2.11879e-05 0.102054)
(-2.08221e-08 6.58958e-05 0.103793)
(1.90296e-07 -6.13642e-05 0.103862)
(5.29126e-07 -2.04822e-05 0.10283)
(-1.85909e-07 1.95822e-05 0.103108)
(-2.28085e-07 -6.41683e-05 0.103778)
(-2.59099e-07 6.22989e-05 0.103872)
(-3.79657e-07 2.06917e-05 0.102852)
(1.29186e-06 7.29596e-05 0.103572)
(2.1528e-07 -2.1104e-05 0.102019)
(-5.89443e-06 -7.70102e-05 0.103123)
(5.1714e-06 1.74292e-05 0.10035)
(-1.75381e-06 -7.18035e-05 0.103552)
(6.30917e-07 2.12131e-05 0.102053)
(4.84511e-06 7.54394e-05 0.103146)
(1.79798e-05 1.79736e-05 0.102737)
(5.24981e-05 5.2522e-05 0.103931)
(-1.82046e-05 -5.82907e-05 0.103552)
(-5.82413e-05 -1.81994e-05 0.103552)
(-1.73072e-05 -1.73216e-05 0.102715)
(1.83395e-05 5.85093e-05 0.103566)
(5.84777e-05 1.83383e-05 0.103566)
(2.20336e-06 3.53817e-06 0.0773836)
(3.48891e-06 2.20845e-06 0.0773817)
(4.96841e-05 4.96871e-05 0.10392)
(5.86455e-06 5.47851e-06 0.0960336)
(5.51287e-06 5.86698e-06 0.0960316)
(-1.40506e-07 1.00914e-05 0.0996939)
(6.00588e-07 7.3776e-06 0.0901432)
(1.19737e-07 1.01033e-05 0.099694)
(-1.9878e-07 1.97675e-05 0.103092)
(1.15311e-06 8.57484e-07 0.104117)
(4.64199e-06 1.83769e-05 0.100305)
(-2.81544e-07 9.29483e-07 0.104216)
(1.9865e-07 1.97796e-05 0.103092)
(2.27344e-07 9.36908e-07 0.104216)
(1.01707e-05 -1.14761e-07 0.0996945)
(7.28247e-06 5.70728e-07 0.0901428)
(1.98062e-05 -1.80651e-07 0.103092)
(7.57322e-07 1.01811e-06 0.104117)
(1.84809e-05 4.59412e-06 0.100304)
(9.01972e-07 -1.81686e-07 0.104216)
(1.01754e-05 1.44415e-07 0.0996944)
(7.2706e-06 -5.81945e-07 0.0901415)
(1.98225e-05 2.04594e-07 0.103092)
(7.96663e-07 -1.11369e-06 0.104117)
(9.35151e-07 2.22991e-07 0.104216)
(1.84331e-05 -4.60529e-06 0.100304)
(3.39961e-06 -2.13491e-06 0.077379)
(4.96752e-05 -4.96625e-05 0.10392)
(5.437e-06 -5.81225e-06 0.0960295)
(5.85817e-06 -5.50342e-06 0.0960329)
(2.19808e-06 -3.51984e-06 0.0773831)
(-2.0069e-07 -1.97751e-05 0.103092)
(1.08495e-06 -7.91141e-07 0.104117)
(-2.17178e-07 -8.76342e-07 0.104216)
(4.6197e-06 -1.84521e-05 0.100305)
(1.92938e-07 -1.97751e-05 0.103092)
(2.17747e-07 -8.89633e-07 0.104216)
(-1.4169e-07 -1.01065e-05 0.0996934)
(5.84681e-07 -7.34366e-06 0.0901433)
(1.28563e-07 -1.01696e-05 0.0996944)
(-2.308e-06 -3.34416e-06 0.0774194)
(-3.38441e-06 -2.29724e-06 0.0774177)
(-3.7437e-06 -3.81902e-06 0.0930863)
(2.06505e-06 1.74585e-06 0.0741972)
(1.84326e-06 2.03991e-06 0.0741926)
(3.84416e-06 3.79558e-06 0.0930442)
(-2.09371e-06 -1.62793e-06 0.074233)
(-1.53904e-06 -2.13887e-06 0.0742284)
(-5.9281e-06 -1.2829e-05 0.0998033)
(2.23002e-06 3.69529e-06 0.0891873)
(1.16719e-05 1.984e-05 0.102207)
(-5.70092e-06 -4.94555e-06 0.0960729)
(6.1064e-06 1.25995e-05 0.0997686)
(-2.27345e-06 -3.43469e-06 0.0892197)
(-1.08152e-05 -1.96669e-05 0.10223)
(-1.27954e-05 -5.91392e-06 0.0997999)
(3.70562e-06 2.23976e-06 0.0891831)
(1.99488e-05 1.17783e-05 0.102205)
(-4.94414e-06 -5.71196e-06 0.0960716)
(1.26098e-05 6.20064e-06 0.0997653)
(-3.43848e-06 -2.28566e-06 0.0892156)
(-1.95341e-05 -1.07599e-05 0.102229)
(6.30272e-07 -3.29259e-06 0.0845175)
(-1.81567e-07 3.11007e-06 0.0868766)
(-3.14384e-07 9.9661e-06 0.0986627)
(8.3782e-08 -1.03858e-05 0.0997235)
(-8.13063e-07 3.32371e-06 0.0844891)
(1.16926e-07 -3.10667e-06 0.0868981)
(3.76643e-08 -1.03595e-05 0.0987003)
(6.39777e-07 -3.09897e-06 0.0735211)
(-2.43968e-07 7.63173e-06 0.0948205)
(-1.31616e-06 -6.8712e-06 0.0901795)
(-1.11363e-06 3.19747e-06 0.0734713)
(-6.37783e-07 -7.69549e-06 0.0948732)
(-6.93765e-07 -3.36211e-06 0.084517)
(1.60769e-07 3.12022e-06 0.086877)
(2.62841e-07 1.00504e-05 0.0986637)
(-7.5495e-08 -1.03873e-05 0.0997234)
(7.53194e-07 3.43215e-06 0.0844917)
(-1.47773e-07 -3.11037e-06 0.0868982)
(-2.66347e-08 -1.04318e-05 0.0986994)
(-3.41521e-06 6.32363e-07 0.0845169)
(1.00319e-05 -2.96751e-07 0.0986638)
(3.19513e-06 -1.70756e-07 0.0868778)
(-1.04762e-05 8.25128e-08 0.0997222)
(3.40421e-06 -7.96915e-07 0.0844918)
(-1.04535e-05 2.16406e-08 0.0986991)
(-3.20785e-06 1.18208e-07 0.086897)
(-3.22973e-06 5.92964e-07 0.0735163)
(7.67553e-06 -2.23465e-07 0.0948219)
(-6.91856e-06 -1.30441e-06 0.0901797)
(3.34305e-06 -1.05091e-06 0.0734726)
(-7.81065e-06 -6.82797e-07 0.0948714)
(-3.30963e-06 -6.44284e-07 0.0845173)
(3.18717e-06 1.58845e-07 0.0868775)
(9.97628e-06 3.23152e-07 0.0986624)
(-1.0462e-05 -9.69993e-08 0.0997222)
(3.32816e-06 7.85035e-07 0.0844891)
(-3.19465e-06 -1.2392e-07 0.086897)
(-1.03642e-05 -5.30444e-08 0.0986998)
(-3.07988e-06 -6.44835e-07 0.0735216)
(7.60436e-06 2.55973e-07 0.0948197)
(-6.85201e-06 1.29392e-06 0.0901797)
(3.2088e-06 1.09967e-06 0.0734717)
(-7.71212e-06 6.36604e-07 0.0948727)
(-3.24886e-06 2.2431e-06 0.0774197)
(-3.80839e-06 3.79756e-06 0.0930863)
(1.7944e-06 -2.04948e-06 0.0741914)
(2.03836e-06 -1.79854e-06 0.0741973)
(3.79137e-06 -3.82229e-06 0.0930443)
(-1.57695e-06 2.10622e-06 0.0742276)
(-2.11623e-06 1.57808e-06 0.0742334)
(-1.27944e-05 5.91636e-06 0.0998004)
(3.67077e-06 -2.20793e-06 0.0891816)
(1.98552e-05 -1.17411e-05 0.102205)
(-4.8631e-06 5.67369e-06 0.0960734)
(-1.96178e-05 1.07684e-05 0.10223)
(1.25478e-05 -6.14505e-06 0.0997649)
(-3.38346e-06 2.25865e-06 0.0892159)
(-5.89507e-06 1.27962e-05 0.0998036)
(2.19983e-06 -3.65781e-06 0.0891868)
(1.17307e-05 -1.98999e-05 0.102206)
(-5.71628e-06 4.95336e-06 0.0960729)
(6.11123e-06 -1.25752e-05 0.0997682)
(-2.24995e-06 3.41433e-06 0.0892204)
(-1.07785e-05 1.95703e-05 0.10223)
(-2.32241e-06 3.36165e-06 0.0774189)
(6.49744e-07 3.30604e-06 0.0845173)
(-2.92066e-07 -9.97243e-06 0.0986622)
(-1.76797e-07 -3.11496e-06 0.0868765)
(8.70171e-08 1.03855e-05 0.0997233)
(-8.13144e-07 -3.32845e-06 0.0844897)
(2.85681e-08 1.03576e-05 0.0987)
(1.14254e-07 3.11375e-06 0.0868978)
(6.08132e-07 3.22048e-06 0.0735203)
(-2.07085e-07 -7.68534e-06 0.0948217)
(-1.32532e-06 6.93091e-06 0.090179)
(-1.05765e-06 -3.32969e-06 0.0734764)
(-6.78884e-07 7.79411e-06 0.0948706)
(-6.96529e-07 3.27547e-06 0.0845184)
(2.96952e-07 -9.98041e-06 0.0986626)
(1.5454e-07 -3.18532e-06 0.0868775)
(-8.7162e-08 1.04487e-05 0.0997224)
(7.45777e-07 -3.35379e-06 0.0844902)
(-7.38102e-08 1.03472e-05 0.0987007)
(-1.36698e-07 3.17566e-06 0.0868972)
(-9.08905e-07 -1.02941e-06 0.104265)
(4.51901e-07 -4.66699e-07 0.104299)
(-4.3339e-07 4.68168e-07 0.104299)
(3.69191e-07 3.58643e-07 0.104316)
(-4.88216e-07 -4.61751e-07 0.104299)
(-3.43906e-07 3.59191e-07 0.104316)
(-9.71451e-07 9.2975e-07 0.104265)
(-4.54837e-07 -4.41048e-07 0.104299)
(4.14313e-07 4.62345e-07 0.104299)
(3.4276e-07 -3.91662e-07 0.104316)
(-4.25496e-07 4.53749e-07 0.104299)
(-3.3753e-07 -3.95101e-07 0.104316)
(-1.8026e-05 -1.79057e-05 0.102737)
(-5.25341e-05 -5.25509e-05 0.103931)
(5.83336e-05 1.82492e-05 0.103552)
(1.81417e-05 5.82255e-05 0.103551)
(1.72463e-05 1.74264e-05 0.102714)
(-5.84769e-05 -1.83252e-05 0.103566)
(-1.83703e-05 -5.8535e-05 0.103565)
(-1.99969e-08 -6.59321e-05 0.103793)
(-5.42062e-07 2.04217e-05 0.10283)
(-1.69002e-07 6.13095e-05 0.103862)
(1.95837e-07 -1.96129e-05 0.103108)
(2.42727e-07 6.41178e-05 0.103778)
(3.66773e-07 -2.07211e-05 0.102852)
(2.66666e-07 -6.23462e-05 0.103873)
(-1.30034e-06 -7.28656e-05 0.103572)
(-2.55647e-07 2.10487e-05 0.102019)
(5.96625e-06 7.70223e-05 0.103124)
(-5.20259e-06 -1.74283e-05 0.10035)
(-4.79431e-06 -7.54059e-05 0.103147)
(1.8219e-06 7.1884e-05 0.103552)
(-6.84655e-07 -2.1157e-05 0.102054)
(-7.49041e-09 -6.59337e-05 0.103793)
(5.27081e-07 2.04485e-05 0.10283)
(1.9759e-07 6.13173e-05 0.103862)
(-1.91864e-07 -1.96111e-05 0.103108)
(-2.36331e-07 6.41109e-05 0.103778)
(-3.68525e-07 -2.07305e-05 0.102852)
(-2.59246e-07 -6.2334e-05 0.103873)
(-6.59345e-05 1.43189e-08 0.103793)
(2.04687e-05 -5.11432e-07 0.10283)
(6.12891e-05 -1.97708e-07 0.103862)
(-1.95859e-05 1.99422e-07 0.103108)
(6.41218e-05 2.00684e-07 0.103778)
(-2.06915e-05 4.05362e-07 0.102852)
(-6.23658e-05 2.49263e-07 0.103872)