/*--------------------------------*- C++ -*----------------------------------*\
| =========                 |                                                 |
| \\      /  F ield         | OpenFOAM: The Open Source CFD Toolbox           |
|  \\    /   O peration     | Version:  v1912                                 |
|   \\  /    A nd           | Website:  www.openfoam.com                      |
|    \\/     M anipulation  |                                                 |
\*---------------------------------------------------------------------------*/
FoamFile
{
    version     2.0;
    format      ascii;
    class       volScalarField;
    location    "120";
    object      k;
}
// * * * * * * * * * * * * * * * * * * * * * * * * * * * * * * * * * * * * * //

dimensions      [0 2 -2 0 0 0 0];


internalField   nonuniform List<scalar> 
171728
(
3.58932e-05
3.58911e-05
3.58911e-05
3.59957e-05
3.39296e-05
3.38891e-05
3.38891e-05
3.39625e-05
3.21576e-05
3.20079e-05
3.20078e-05
3.19522e-05
3.05344e-05
3.02288e-05
3.02288e-05
2.99886e-05
2.90326e-05
2.85535e-05
2.85533e-05
2.81231e-05
2.7635e-05
2.69866e-05
2.69865e-05
2.63918e-05
2.63304e-05
2.55305e-05
2.55303e-05
2.4809e-05
2.51108e-05
2.41845e-05
2.41843e-05
2.33804e-05
2.39706e-05
2.29503e-05
2.29501e-05
2.21076e-05
2.29054e-05
2.18267e-05
2.18265e-05
2.09896e-05
2.19116e-05
2.08114e-05
2.08112e-05
2.00176e-05
2.09861e-05
1.99015e-05
1.99013e-05
1.91859e-05
2.01238e-05
1.90952e-05
1.9095e-05
1.84946e-05
1.93236e-05
1.83891e-05
1.8389e-05
1.79386e-05
1.85845e-05
1.77802e-05
1.77802e-05
1.75123e-05
1.7904e-05
1.72667e-05
1.72667e-05
1.72066e-05
1.72797e-05
1.68478e-05
1.68479e-05
1.7029e-05
1.67097e-05
1.65227e-05
1.65229e-05
1.69883e-05
1.61925e-05
1.62917e-05
1.6292e-05
1.70852e-05
1.57256e-05
1.6154e-05
1.61544e-05
1.73098e-05
1.53075e-05
1.61097e-05
1.61101e-05
1.76621e-05
1.49377e-05
1.61556e-05
1.61562e-05
1.81376e-05
1.46139e-05
1.62917e-05
1.62924e-05
1.87262e-05
1.43369e-05
1.65112e-05
1.65121e-05
1.94045e-05
1.40962e-05
1.67904e-05
1.67913e-05
2.01296e-05
1.38914e-05
1.70928e-05
1.70939e-05
2.08183e-05
1.37016e-05
1.7327e-05
1.73281e-05
2.13093e-05
1.34636e-05
1.73764e-05
1.73778e-05
2.15039e-05
1.32329e-05
1.73143e-05
1.73162e-05
2.15155e-05
1.31139e-05
1.73013e-05
1.73044e-05
2.15209e-05
3.63067e-05
3.6291e-05
3.6291e-05
3.63067e-05
3.6291e-05
3.6291e-05
3.6423e-05
3.6423e-05
3.6423e-05
3.6423e-05
3.6291e-05
3.6291e-05
3.63067e-05
3.6291e-05
3.6291e-05
3.63067e-05
3.59957e-05
3.4269e-05
3.58911e-05
3.58911e-05
3.43769e-05
3.43768e-05
3.59957e-05
3.4269e-05
3.58911e-05
3.58911e-05
3.43769e-05
3.43768e-05
3.58911e-05
3.43769e-05
3.43769e-05
3.59957e-05
3.4269e-05
3.58911e-05
3.43769e-05
3.43769e-05
3.4269e-05
3.39625e-05
3.22637e-05
3.3889e-05
3.3889e-05
3.24682e-05
3.24681e-05
3.39625e-05
3.22638e-05
3.3889e-05
3.3889e-05
3.24682e-05
3.24681e-05
3.3889e-05
3.24683e-05
3.24682e-05
3.39625e-05
3.22637e-05
3.3889e-05
3.24683e-05
3.24682e-05
3.22637e-05
3.19523e-05
3.02998e-05
3.20077e-05
3.20076e-05
3.06639e-05
3.06637e-05
3.19523e-05
3.02999e-05
3.20077e-05
3.20075e-05
3.0664e-05
3.06637e-05
3.20077e-05
3.06641e-05
3.06638e-05
3.19522e-05
3.02997e-05
3.20077e-05
3.06641e-05
3.0664e-05
3.02997e-05
2.99887e-05
2.84261e-05
3.02285e-05
3.02284e-05
2.89619e-05
2.89616e-05
2.99888e-05
2.84263e-05
3.02287e-05
3.02283e-05
2.8962e-05
2.89615e-05
3.02285e-05
2.89623e-05
2.89618e-05
2.99886e-05
2.8426e-05
3.02286e-05
2.89621e-05
2.8962e-05
2.8426e-05
2.81233e-05
2.66751e-05
2.8553e-05
2.85528e-05
2.73674e-05
2.73672e-05
2.81233e-05
2.66752e-05
2.85532e-05
2.85527e-05
2.73677e-05
2.7367e-05
2.85529e-05
2.7368e-05
2.73673e-05
2.81231e-05
2.66749e-05
2.85532e-05
2.73678e-05
2.73677e-05
2.66749e-05
2.6392e-05
2.50679e-05
2.6986e-05
2.69858e-05
2.58835e-05
2.58833e-05
2.63921e-05
2.50681e-05
2.69864e-05
2.69856e-05
2.58839e-05
2.58831e-05
2.6986e-05
2.58842e-05
2.58835e-05
2.63918e-05
2.50677e-05
2.69863e-05
2.5884e-05
2.58839e-05
2.50677e-05
2.48091e-05
2.36147e-05
2.55298e-05
2.55295e-05
2.45098e-05
2.45095e-05
2.48093e-05
2.36149e-05
2.55302e-05
2.55293e-05
2.45103e-05
2.45092e-05
2.55297e-05
2.45106e-05
2.45097e-05
2.4809e-05
2.36145e-05
2.55302e-05
2.45104e-05
2.45102e-05
2.36145e-05
2.33807e-05
2.23153e-05
2.41837e-05
2.41834e-05
2.32475e-05
2.32472e-05
2.33808e-05
2.23155e-05
2.41842e-05
2.41832e-05
2.32481e-05
2.32469e-05
2.41836e-05
2.32484e-05
2.32474e-05
2.33805e-05
2.23151e-05
2.41842e-05
2.32482e-05
2.32481e-05
2.23151e-05
2.21079e-05
2.11717e-05
2.29494e-05
2.2949e-05
2.20964e-05
2.2096e-05
2.2108e-05
2.11718e-05
2.295e-05
2.29488e-05
2.2097e-05
2.20958e-05
2.29493e-05
2.20974e-05
2.20963e-05
2.21077e-05
2.11714e-05
2.295e-05
2.20972e-05
2.2097e-05
2.11713e-05
2.099e-05
2.01749e-05
2.18257e-05
2.18253e-05
2.10542e-05
2.10538e-05
2.09901e-05
2.01751e-05
2.18264e-05
2.18251e-05
2.10549e-05
2.10536e-05
2.18256e-05
2.10553e-05
2.10541e-05
2.09897e-05
2.01747e-05
2.18264e-05
2.10551e-05
2.1055e-05
2.01746e-05
2.00179e-05
1.93194e-05
2.08103e-05
2.081e-05
2.01183e-05
2.01179e-05
2.00181e-05
1.93195e-05
2.08111e-05
2.08097e-05
2.01191e-05
2.01177e-05
2.08102e-05
2.01194e-05
2.01182e-05
2.00177e-05
1.93191e-05
2.08111e-05
2.01192e-05
2.01191e-05
1.9319e-05
1.91862e-05
1.8596e-05
1.99004e-05
1.99001e-05
1.92861e-05
1.92858e-05
1.91863e-05
1.85962e-05
1.99012e-05
1.98998e-05
1.92869e-05
1.92855e-05
1.99003e-05
1.92872e-05
1.9286e-05
1.9186e-05
1.85958e-05
1.99012e-05
1.9287e-05
1.92869e-05
1.85956e-05
1.84949e-05
1.80038e-05
1.90941e-05
1.90938e-05
1.85554e-05
1.8555e-05
1.8495e-05
1.80039e-05
1.90949e-05
1.90936e-05
1.85562e-05
1.85549e-05
1.9094e-05
1.85564e-05
1.85553e-05
1.84947e-05
1.80036e-05
1.90949e-05
1.85563e-05
1.85562e-05
1.80035e-05
1.79389e-05
1.75455e-05
1.83881e-05
1.83878e-05
1.79226e-05
1.79223e-05
1.7939e-05
1.75456e-05
1.83889e-05
1.83876e-05
1.79234e-05
1.79221e-05
1.8388e-05
1.79235e-05
1.79225e-05
1.79387e-05
1.75454e-05
1.83889e-05
1.79234e-05
1.79234e-05
1.75452e-05
1.75126e-05
1.72241e-05
1.77792e-05
1.7779e-05
1.73854e-05
1.73852e-05
1.75126e-05
1.7224e-05
1.778e-05
1.77789e-05
1.73862e-05
1.73851e-05
1.77792e-05
1.73862e-05
1.73853e-05
1.75125e-05
1.7224e-05
1.77801e-05
1.73862e-05
1.73862e-05
1.72238e-05
1.72068e-05
1.70325e-05
1.72659e-05
1.72657e-05
1.69431e-05
1.69429e-05
1.72068e-05
1.70324e-05
1.72666e-05
1.72656e-05
1.69438e-05
1.69428e-05
1.72658e-05
1.69437e-05
1.6943e-05
1.72067e-05
1.70325e-05
1.72667e-05
1.69438e-05
1.69438e-05
1.70324e-05
1.70292e-05
1.6979e-05
1.68471e-05
1.6847e-05
1.65944e-05
1.65942e-05
1.70291e-05
1.69788e-05
1.68478e-05
1.68469e-05
1.6595e-05
1.65943e-05
1.68471e-05
1.65949e-05
1.65943e-05
1.70292e-05
1.6979e-05
1.68478e-05
1.65951e-05
1.65951e-05
1.69789e-05
1.69884e-05
1.70498e-05
1.65222e-05
1.65221e-05
1.6339e-05
1.63388e-05
1.69881e-05
1.70495e-05
1.65229e-05
1.65221e-05
1.63396e-05
1.6339e-05
1.65222e-05
1.63393e-05
1.63389e-05
1.69884e-05
1.70499e-05
1.65229e-05
1.63396e-05
1.63396e-05
1.70497e-05
1.70853e-05
1.72495e-05
1.62914e-05
1.62913e-05
1.61777e-05
1.61776e-05
1.70849e-05
1.72491e-05
1.6292e-05
1.62915e-05
1.61782e-05
1.61778e-05
1.62914e-05
1.61778e-05
1.61776e-05
1.70854e-05
1.72497e-05
1.6292e-05
1.61782e-05
1.61783e-05
1.72496e-05
1.73098e-05
1.75773e-05
1.61539e-05
1.61539e-05
1.61095e-05
1.61097e-05
1.73094e-05
1.75769e-05
1.61544e-05
1.61541e-05
1.611e-05
1.61099e-05
1.61539e-05
1.61095e-05
1.61096e-05
1.731e-05
1.75776e-05
1.61545e-05
1.611e-05
1.61101e-05
1.75775e-05
1.76619e-05
1.80292e-05
1.61096e-05
1.61098e-05
1.61354e-05
1.61357e-05
1.76615e-05
1.80286e-05
1.61102e-05
1.61101e-05
1.61359e-05
1.6136e-05
1.61097e-05
1.61353e-05
1.61355e-05
1.76622e-05
1.80296e-05
1.61103e-05
1.61358e-05
1.61361e-05
1.80295e-05
1.81373e-05
1.85962e-05
1.61557e-05
1.6156e-05
1.62497e-05
1.62501e-05
1.81368e-05
1.85956e-05
1.61562e-05
1.61563e-05
1.62501e-05
1.62505e-05
1.61558e-05
1.62494e-05
1.62499e-05
1.81377e-05
1.85968e-05
1.61563e-05
1.62501e-05
1.62504e-05
1.85966e-05
1.87258e-05
1.92577e-05
1.62919e-05
1.62924e-05
1.64496e-05
1.64502e-05
1.87252e-05
1.9257e-05
1.62923e-05
1.62928e-05
1.645e-05
1.64506e-05
1.62922e-05
1.64492e-05
1.64499e-05
1.87263e-05
1.92584e-05
1.62926e-05
1.64499e-05
1.64503e-05
1.92583e-05
1.94039e-05
1.99751e-05
1.65117e-05
1.65122e-05
1.67176e-05
1.67182e-05
1.94032e-05
1.99743e-05
1.6512e-05
1.65127e-05
1.67179e-05
1.67187e-05
1.65119e-05
1.67169e-05
1.6718e-05
1.94045e-05
1.99758e-05
1.65124e-05
1.67178e-05
1.67184e-05
1.99759e-05
2.01287e-05
2.06736e-05
1.67909e-05
1.67915e-05
1.70185e-05
1.70192e-05
2.0128e-05
2.06727e-05
1.67911e-05
1.6792e-05
1.70186e-05
1.70197e-05
1.67913e-05
1.70176e-05
1.70189e-05
2.01294e-05
2.06745e-05
1.67917e-05
1.70187e-05
1.70192e-05
2.06746e-05
2.08172e-05
2.12105e-05
1.70936e-05
1.70942e-05
1.7285e-05
1.72855e-05
2.08164e-05
2.12096e-05
1.70935e-05
1.70948e-05
1.72848e-05
1.72864e-05
1.7094e-05
1.7284e-05
1.72854e-05
2.0818e-05
2.1212e-05
1.70942e-05
1.72851e-05
1.72855e-05
2.12116e-05
2.13074e-05
2.14556e-05
1.73278e-05
1.73283e-05
1.73781e-05
1.73787e-05
2.13066e-05
2.14547e-05
1.73276e-05
1.73292e-05
1.73779e-05
1.73793e-05
1.73283e-05
1.73768e-05
1.73789e-05
2.13088e-05
2.14569e-05
1.73283e-05
1.73782e-05
1.73787e-05
2.1457e-05
2.1501e-05
2.14867e-05
1.73774e-05
1.7378e-05
1.73298e-05
1.73304e-05
2.15001e-05
2.14852e-05
1.73772e-05
1.73786e-05
1.73298e-05
1.73308e-05
1.73782e-05
1.73281e-05
1.73308e-05
2.15021e-05
2.14873e-05
1.7378e-05
1.73299e-05
1.73306e-05
2.14878e-05
2.15132e-05
2.14822e-05
1.73156e-05
1.73162e-05
1.7303e-05
1.73037e-05
2.15118e-05
2.14807e-05
1.73155e-05
1.73166e-05
1.7303e-05
1.73039e-05
1.73167e-05
1.73011e-05
1.73041e-05
2.15137e-05
2.1483e-05
1.73165e-05
1.73032e-05
1.7304e-05
2.14835e-05
2.15179e-05
1.7303e-05
1.73037e-05
2.15164e-05
1.73029e-05
1.73046e-05
1.73047e-05
2.15185e-05
1.73047e-05
3.73773e-05
3.73765e-05
3.7377e-05
3.7377e-05
3.73701e-05
3.73777e-05
3.73044e-05
3.73768e-05
3.73701e-05
3.73777e-05
3.73768e-05
3.73044e-05
3.7374e-05
3.72959e-05
3.72959e-05
3.58855e-05
4.08628e-05
3.66024e-05
4.5141e-05
5.51073e-05
6.49014e-05
3.58861e-05
4.0862e-05
3.66025e-05
4.51408e-05
3.58931e-05
3.58932e-05
3.58932e-05
3.44004e-05
3.44004e-05
3.44004e-05
3.44004e-05
3.52758e-05
3.56357e-05
3.58928e-05
3.53772e-05
3.60473e-05
3.4228e-05
3.53823e-05
5.51094e-05
6.49056e-05
3.52759e-05
3.58928e-05
3.56354e-05
3.53772e-05
3.60472e-05
3.53823e-05
3.42289e-05
3.65907e-05
3.65913e-05
3.52791e-05
3.40752e-05
3.40743e-05
3.39681e-05
5.13455e-05
3.46788e-05
5.46165e-05
7.6548e-05
8.08629e-05
3.39706e-05
5.13464e-05
3.46784e-05
5.4617e-05
3.39296e-05
3.39296e-05
3.39296e-05
3.25853e-05
3.25853e-05
3.25853e-05
3.25853e-05
3.30536e-05
3.24568e-05
3.39297e-05
3.34087e-05
3.38957e-05
3.15544e-05
3.34679e-05
7.65491e-05
8.0867e-05
3.30536e-05
3.39297e-05
3.24558e-05
3.34087e-05
3.38954e-05
3.34679e-05
3.15561e-05
3.17153e-05
3.17147e-05
3.3264e-05
3.09224e-05
3.09209e-05
3.22532e-05
5.91625e-05
3.29262e-05
6.14345e-05
8.43941e-05
8.50689e-05
3.22554e-05
5.91642e-05
3.29241e-05
6.14365e-05
3.21576e-05
3.21576e-05
3.21576e-05
3.0928e-05
3.09279e-05
3.09279e-05
3.0928e-05
3.07884e-05
3.04925e-05
3.21376e-05
3.15537e-05
3.1636e-05
2.98643e-05
3.17101e-05
8.43959e-05
8.50714e-05
3.07883e-05
3.21376e-05
3.04926e-05
3.15537e-05
3.16355e-05
3.17101e-05
2.98653e-05
3.02121e-05
3.02111e-05
3.12734e-05
2.99962e-05
2.99948e-05
3.07569e-05
6.43474e-05
3.13538e-05
6.57247e-05
8.46112e-05
8.39097e-05
3.07578e-05
6.4349e-05
3.13539e-05
6.5728e-05
3.05344e-05
3.05344e-05
3.05344e-05
2.93977e-05
2.93977e-05
2.93977e-05
2.93977e-05
2.85992e-05
2.912e-05
3.04693e-05
2.98e-05
2.94118e-05
2.86536e-05
3.00685e-05
8.46111e-05
8.39127e-05
2.85991e-05
3.04692e-05
2.91206e-05
2.97999e-05
2.94114e-05
3.00684e-05
2.86546e-05
2.99292e-05
2.99281e-05
2.9349e-05
3.0022e-05
3.00209e-05
2.9522e-05
6.73204e-05
3.00046e-05
6.80359e-05
8.22104e-05
8.12169e-05
2.9523e-05
6.73226e-05
3.0005e-05
6.80396e-05
2.90326e-05
2.90325e-05
2.90326e-05
2.79753e-05
2.79753e-05
2.79753e-05
2.79753e-05
2.65658e-05
2.81038e-05
2.89024e-05
2.81514e-05
2.73155e-05
2.77631e-05
2.85253e-05
8.22092e-05
8.12193e-05
2.65658e-05
2.89023e-05
2.81042e-05
2.81513e-05
2.7315e-05
2.85252e-05
2.77641e-05
3.04251e-05
3.04249e-05
2.75339e-05
3.07665e-05
3.07655e-05
2.86085e-05
6.87472e-05
2.89517e-05
6.90434e-05
7.94299e-05
7.85276e-05
2.86095e-05
6.87503e-05
2.8952e-05
6.90468e-05
2.7635e-05
2.7635e-05
2.7635e-05
2.66483e-05
2.66483e-05
2.66482e-05
2.66483e-05
2.47414e-05
2.73903e-05
2.74282e-05
2.66122e-05
2.54121e-05
2.71765e-05
2.70737e-05
7.94279e-05
7.853e-05
2.47415e-05
2.74281e-05
2.73907e-05
2.6612e-05
2.54115e-05
2.70735e-05
2.71774e-05
3.15428e-05
3.1543e-05
2.58524e-05
3.21138e-05
3.21139e-05
2.8064e-05
6.92603e-05
2.82497e-05
6.93222e-05
7.69988e-05
7.62815e-05
2.80649e-05
6.92638e-05
2.82499e-05
6.93256e-05
2.63304e-05
2.63303e-05
2.63304e-05
2.54081e-05
2.54081e-05
2.54079e-05
2.5408e-05
2.31614e-05
2.69889e-05
2.60438e-05
2.51836e-05
2.37442e-05
2.69098e-05
2.57116e-05
7.6997e-05
7.62834e-05
2.31617e-05
2.60437e-05
2.69892e-05
2.51834e-05
2.37437e-05
2.57114e-05
2.69106e-05
3.31714e-05
3.31725e-05
2.43219e-05
3.39073e-05
3.39087e-05
2.79207e-05
6.93135e-05
2.7934e-05
6.92872e-05
7.50661e-05
7.45289e-05
2.7921e-05
6.93169e-05
2.79341e-05
6.92906e-05
2.51108e-05
2.51107e-05
2.51108e-05
2.42484e-05
2.42484e-05
2.42483e-05
2.42484e-05
2.18446e-05
2.69252e-05
2.47481e-05
2.38655e-05
2.23352e-05
2.69735e-05
2.4438e-05
7.50649e-05
7.45299e-05
2.18449e-05
2.4748e-05
2.69253e-05
2.38653e-05
2.23346e-05
2.44378e-05
2.69742e-05
3.51734e-05
3.51755e-05
2.29449e-05
3.60202e-05
3.60233e-05
2.81667e-05
6.92148e-05
2.80397e-05
6.91831e-05
7.36009e-05
7.32059e-05
2.8167e-05
6.92185e-05
2.80393e-05
6.91868e-05
2.39706e-05
2.39704e-05
2.39705e-05
2.31648e-05
2.31648e-05
2.31646e-05
2.31647e-05
2.07994e-05
2.71932e-05
2.35401e-05
2.26592e-05
2.1194e-05
2.73486e-05
2.32514e-05
7.36011e-05
7.32061e-05
2.07995e-05
2.354e-05
2.71934e-05
2.26589e-05
2.11936e-05
2.32512e-05
2.73495e-05
3.74222e-05
3.74256e-05
2.17242e-05
3.83372e-05
3.83421e-05
2.88319e-05
6.91338e-05
2.85642e-05
6.91226e-05
7.25222e-05
7.22372e-05
2.88322e-05
6.91376e-05
2.85639e-05
6.91267e-05
2.29054e-05
2.29052e-05
2.29053e-05
2.21535e-05
2.21535e-05
2.21533e-05
2.21534e-05
2.00277e-05
2.77748e-05
2.24162e-05
2.15629e-05
2.0318e-05
2.803e-05
2.21483e-05
7.25227e-05
7.22376e-05
2.00277e-05
2.24161e-05
2.77752e-05
2.15627e-05
2.03178e-05
2.2148e-05
2.80311e-05
3.98085e-05
3.98132e-05
2.0655e-05
4.07534e-05
4.07603e-05
2.99409e-05
6.91208e-05
2.94933e-05
6.91353e-05
7.1746e-05
7.15452e-05
2.99476e-05
6.91251e-05
2.94858e-05
6.91398e-05
2.19117e-05
2.19115e-05
2.19116e-05
2.12112e-05
2.12112e-05
2.1211e-05
2.12111e-05
1.95231e-05
2.86458e-05
2.13759e-05
2.05742e-05
1.97038e-05
2.89905e-05
2.1129e-05
7.17465e-05
7.15457e-05
1.95232e-05
2.13758e-05
2.86464e-05
2.0574e-05
1.97038e-05
2.11288e-05
2.89917e-05
4.22342e-05
4.22403e-05
1.97296e-05
4.31753e-05
4.31839e-05
3.14593e-05
6.91702e-05
3.08227e-05
6.92067e-05
7.11987e-05
7.10599e-05
3.14622e-05
6.91751e-05
3.08195e-05
6.92116e-05
2.09862e-05
2.0986e-05
2.09861e-05
2.03337e-05
2.03337e-05
2.03335e-05
2.03337e-05
1.92834e-05
2.97719e-05
2.0419e-05
1.96903e-05
1.93543e-05
3.01929e-05
2.01924e-05
7.11992e-05
7.10603e-05
1.92836e-05
2.04189e-05
2.97727e-05
1.96901e-05
1.93543e-05
2.01922e-05
3.01944e-05
4.46135e-05
4.4621e-05
1.89412e-05
4.55225e-05
4.55326e-05
3.33448e-05
6.92636e-05
3.2552e-05
6.93099e-05
7.08171e-05
7.07214e-05
3.33449e-05
6.92689e-05
3.25525e-05
6.93151e-05
2.01238e-05
2.01236e-05
2.01237e-05
1.95178e-05
1.95178e-05
1.95176e-05
1.95177e-05
1.93035e-05
3.11122e-05
1.95424e-05
1.89094e-05
1.92713e-05
3.15946e-05
1.93355e-05
7.08175e-05
7.07217e-05
1.93036e-05
1.95423e-05
3.11131e-05
1.89092e-05
1.92714e-05
1.93353e-05
3.15961e-05
4.68761e-05
4.68848e-05
1.82831e-05
4.77304e-05
4.77418e-05
3.5547e-05
6.93731e-05
3.46341e-05
6.94198e-05
7.05494e-05
7.04824e-05
3.55471e-05
6.93787e-05
3.4635e-05
6.94253e-05
1.93236e-05
1.93234e-05
1.93235e-05
1.87637e-05
1.87638e-05
1.87635e-05
1.87637e-05
1.9575e-05
3.26195e-05
1.87432e-05
1.8228e-05
1.94568e-05
3.31462e-05
1.85553e-05
7.05497e-05
7.04827e-05
1.95752e-05
1.87431e-05
3.26205e-05
1.82279e-05
1.94571e-05
1.85551e-05
3.31479e-05
4.89697e-05
4.89793e-05
1.77574e-05
4.97547e-05
4.9767e-05
3.79894e-05
6.94805e-05
3.69905e-05
6.95237e-05
7.03557e-05
7.03065e-05
3.79898e-05
6.94862e-05
3.69915e-05
6.95293e-05
1.85846e-05
1.85843e-05
1.85845e-05
1.80688e-05
1.80688e-05
1.80686e-05
1.80687e-05
2.01024e-05
3.42418e-05
1.8019e-05
1.7643e-05
1.98998e-05
3.47955e-05
1.78494e-05
7.03561e-05
7.03068e-05
2.01027e-05
1.80189e-05
3.4243e-05
1.76429e-05
1.99001e-05
1.78493e-05
3.47972e-05
5.0863e-05
5.08733e-05
1.73679e-05
5.15721e-05
5.15848e-05
4.05706e-05
6.95788e-05
3.95266e-05
6.9618e-05
7.02074e-05
7.01686e-05
4.05711e-05
6.95846e-05
3.95277e-05
6.96236e-05
1.7904e-05
1.79038e-05
1.7904e-05
1.74307e-05
1.74307e-05
1.74305e-05
1.74306e-05
2.08786e-05
3.59276e-05
1.73673e-05
1.71532e-05
2.05945e-05
3.64916e-05
1.72157e-05
7.02076e-05
7.01689e-05
2.08789e-05
1.73673e-05
3.59287e-05
1.71532e-05
2.05948e-05
1.72156e-05
3.64932e-05
5.25455e-05
5.25565e-05
1.71117e-05
5.31779e-05
5.31906e-05
4.31773e-05
6.96681e-05
4.2132e-05
6.97041e-05
7.00855e-05
7.00528e-05
4.31781e-05
6.9674e-05
4.21334e-05
6.97098e-05
1.72798e-05
1.72796e-05
1.72797e-05
1.68472e-05
1.68472e-05
1.6847e-05
1.68472e-05
2.18902e-05
3.76287e-05
1.67875e-05
1.67577e-05
2.15299e-05
3.81884e-05
1.66535e-05
7.00857e-05
7.00531e-05
2.18905e-05
1.67874e-05
3.76298e-05
1.67578e-05
2.15303e-05
1.66534e-05
3.819e-05
5.40231e-05
5.40346e-05
1.69885e-05
5.45811e-05
5.45935e-05
4.56996e-05
6.97506e-05
4.46948e-05
6.97844e-05
6.99791e-05
6.99498e-05
4.57006e-05
6.97564e-05
4.46963e-05
6.979e-05
1.67097e-05
1.67096e-05
1.67097e-05
1.63167e-05
1.63167e-05
1.63166e-05
1.63167e-05
2.31153e-05
3.93036e-05
1.62771e-05
1.64555e-05
2.26873e-05
3.98469e-05
1.61601e-05
6.99793e-05
6.99503e-05
2.31157e-05
1.62771e-05
3.93048e-05
1.64557e-05
2.26877e-05
1.61601e-05
3.98485e-05
5.53122e-05
5.53242e-05
1.69978e-05
5.57996e-05
5.58118e-05
4.80465e-05
6.98284e-05
4.71154e-05
6.98606e-05
6.98823e-05
6.98556e-05
4.80476e-05
6.98341e-05
4.7117e-05
6.98661e-05
1.61925e-05
1.61924e-05
1.61925e-05
1.58376e-05
1.58376e-05
1.58375e-05
1.58376e-05
2.45226e-05
4.0919e-05
1.58348e-05
1.62467e-05
2.40384e-05
4.14367e-05
1.57347e-05
6.98825e-05
6.98559e-05
2.4523e-05
1.58348e-05
4.09201e-05
1.6247e-05
2.40388e-05
1.57347e-05
4.14383e-05
5.64341e-05
5.64461e-05
1.71334e-05
5.6858e-05
5.68702e-05
5.01555e-05
6.99025e-05
4.93191e-05
6.99329e-05
6.97925e-05
6.97677e-05
5.01569e-05
6.99081e-05
4.93208e-05
6.99384e-05
1.57256e-05
1.57256e-05
1.57257e-05
1.54074e-05
1.54074e-05
1.54074e-05
1.54074e-05
2.60722e-05
4.24505e-05
1.54601e-05
1.61321e-05
2.55459e-05
4.29367e-05
1.5377e-05
6.97926e-05
6.97679e-05
2.60725e-05
1.54601e-05
4.24516e-05
1.61325e-05
2.55463e-05
1.5377e-05
4.29382e-05
5.74102e-05
5.74222e-05
1.73977e-05
5.77801e-05
5.77922e-05
5.19943e-05
6.99721e-05
5.12631e-05
7.00001e-05
6.97083e-05
6.96854e-05
5.19958e-05
6.99776e-05
5.12646e-05
7.00057e-05
1.53075e-05
1.53074e-05
1.53075e-05
1.50259e-05
1.50259e-05
1.50258e-05
1.50259e-05
2.77182e-05
4.38831e-05
1.51528e-05
1.61128e-05
2.71655e-05
4.43345e-05
1.50866e-05
6.97085e-05
6.96858e-05
2.77185e-05
1.51528e-05
4.38826e-05
1.61133e-05
2.71658e-05
1.50867e-05
4.43386e-05
5.82624e-05
5.82743e-05
1.77884e-05
5.85859e-05
5.8598e-05
5.35546e-05
7.00357e-05
5.29371e-05
7.00612e-05
6.96299e-05
6.96088e-05
5.35561e-05
7.00413e-05
5.29386e-05
7.0067e-05
1.49378e-05
1.49377e-05
1.49378e-05
1.46905e-05
1.46905e-05
1.46905e-05
1.46906e-05
2.94122e-05
4.5207e-05
1.49134e-05
1.61813e-05
2.88497e-05
4.5626e-05
1.48638e-05
6.96301e-05
6.96091e-05
2.94125e-05
1.49134e-05
4.52039e-05
1.61819e-05
2.88501e-05
1.4864e-05
4.56316e-05
5.90086e-05
5.90205e-05
1.82995e-05
5.92932e-05
5.93052e-05
5.48537e-05
7.00889e-05
5.434e-05
7.01038e-05
6.95557e-05
6.95356e-05
5.48552e-05
7.00946e-05
5.43414e-05
7.01098e-05
1.46139e-05
1.4614e-05
1.4614e-05
1.44021e-05
1.4402e-05
1.44021e-05
1.44022e-05
3.11015e-05
4.64162e-05
1.47408e-05
1.63391e-05
3.05468e-05
4.67987e-05
1.47083e-05
6.95555e-05
6.95355e-05
3.11017e-05
1.47409e-05
4.64138e-05
1.63398e-05
3.05471e-05
1.47085e-05
4.68035e-05
5.96577e-05
5.96695e-05
1.89176e-05
5.99004e-05
5.99128e-05
5.58723e-05
7.01212e-05
5.5489e-05
7.01377e-05
6.94905e-05
6.94755e-05
5.5874e-05
7.01271e-05
5.54905e-05
7.01439e-05
1.43369e-05
1.4337e-05
1.4337e-05
1.41536e-05
1.41536e-05
1.41537e-05
1.41538e-05
3.27186e-05
4.74941e-05
1.46364e-05
1.65768e-05
3.22002e-05
4.78392e-05
1.46196e-05
6.94905e-05
6.94758e-05
3.27187e-05
1.46366e-05
4.7492e-05
1.65776e-05
3.22004e-05
1.46199e-05
4.78424e-05
6.02255e-05
6.02378e-05
1.96135e-05
6.04456e-05
6.04573e-05
5.64902e-05
7.01443e-05
5.6281e-05
7.01407e-05
6.94273e-05
6.94062e-05
5.64926e-05
7.01504e-05
5.62824e-05
7.01468e-05
1.40962e-05
1.40964e-05
1.40964e-05
1.39389e-05
1.39388e-05
1.3939e-05
1.39391e-05
3.41139e-05
4.84224e-05
1.45881e-05
1.68652e-05
3.36927e-05
4.86911e-05
1.45825e-05
6.9427e-05
6.94066e-05
3.41137e-05
1.45883e-05
4.84212e-05
1.68661e-05
3.36927e-05
1.45828e-05
4.86939e-05
6.06939e-05
6.07064e-05
2.03341e-05
6.08271e-05
6.08396e-05
5.67796e-05
7.01074e-05
5.6687e-05
7.00845e-05
6.93513e-05
6.93277e-05
5.67815e-05
7.01137e-05
5.66883e-05
7.00911e-05
1.38914e-05
1.38916e-05
1.38916e-05
1.3752e-05
1.37519e-05
1.37522e-05
1.37522e-05
3.5104e-05
4.90946e-05
1.45815e-05
1.71637e-05
3.48336e-05
4.9251e-05
1.45839e-05
6.93513e-05
6.93274e-05
3.5104e-05
1.45818e-05
4.90934e-05
1.71648e-05
3.48336e-05
1.45843e-05
4.9252e-05
6.09737e-05
6.09843e-05
2.09793e-05
6.10322e-05
6.1043e-05
5.68294e-05
7.00279e-05
5.68246e-05
6.9998e-05
6.92732e-05
6.9255e-05
5.68314e-05
7.00347e-05
5.68261e-05
7.00052e-05
1.37016e-05
1.37019e-05
1.37019e-05
1.35276e-05
1.35275e-05
1.35278e-05
1.35279e-05
3.56186e-05
4.94486e-05
1.45741e-05
1.73558e-05
3.55049e-05
4.94792e-05
1.45551e-05
6.92718e-05
6.92534e-05
3.56182e-05
1.45745e-05
4.94488e-05
1.73571e-05
3.55046e-05
1.45555e-05
4.94834e-05
6.10546e-05
6.10651e-05
2.13719e-05
6.10556e-05
6.10662e-05
5.681e-05
6.99441e-05
5.68204e-05
6.99242e-05
6.92148e-05
6.92047e-05
5.68125e-05
6.99513e-05
5.68218e-05
6.99314e-05
1.34635e-05
1.34638e-05
1.3464e-05
1.32821e-05
1.32819e-05
1.32823e-05
1.32825e-05
3.57639e-05
4.94802e-05
1.44615e-05
1.73679e-05
3.57546e-05
4.94688e-05
1.44221e-05
6.92128e-05
6.92029e-05
3.5764e-05
1.4462e-05
4.9485e-05
1.73695e-05
3.57544e-05
1.44228e-05
4.94735e-05
6.10291e-05
6.104e-05
2.14879e-05
6.10099e-05
6.10208e-05
5.67517e-05
6.98938e-05
5.6769e-05
6.98845e-05
6.91803e-05
6.91781e-05
5.67549e-05
6.99008e-05
5.67722e-05
6.98917e-05
1.32328e-05
1.3233e-05
1.32332e-05
1.31318e-05
1.31317e-05
1.31344e-05
1.31346e-05
3.57753e-05
4.94478e-05
1.4317e-05
1.73055e-05
3.57821e-05
4.94316e-05
1.42921e-05
6.91783e-05
6.91765e-05
3.57769e-05
1.43178e-05
4.94517e-05
1.73074e-05
3.57835e-05
1.42929e-05
4.9437e-05
6.09756e-05
6.09867e-05
2.14748e-05
6.09635e-05
6.09747e-05
5.67107e-05
6.98709e-05
5.67206e-05
6.98681e-05
6.91646e-05
6.91672e-05
5.67114e-05
6.98781e-05
5.67227e-05
6.98753e-05
1.31138e-05
1.31112e-05
1.31114e-05
3.57661e-05
4.94166e-05
1.42561e-05
1.73042e-05
3.57763e-05
4.94074e-05
1.42551e-05
6.91629e-05
6.91661e-05
3.57427e-05
1.42598e-05
4.942e-05
1.72987e-05
3.57781e-05
1.42538e-05
4.93947e-05
6.09451e-05
6.09555e-05
2.14892e-05
6.09297e-05
6.09399e-05
3.7374e-05
3.72959e-05
3.72959e-05
5.31146e-05
3.71931e-05
5.31165e-05
3.71931e-05
3.70931e-05
3.72448e-05
3.7246e-05
3.71762e-05
3.71762e-05
3.73701e-05
3.73777e-05
3.73044e-05
3.73768e-05
3.73701e-05
3.73777e-05
3.73044e-05
3.73768e-05
3.71731e-05
3.94117e-05
3.71676e-05
3.67257e-05
3.71731e-05
3.94117e-05
3.71676e-05
3.67258e-05
3.70959e-05
3.71022e-05
3.60205e-05
3.64211e-05
3.71634e-05
3.71109e-05
3.63053e-05
3.70959e-05
3.71022e-05
3.60209e-05
3.64211e-05
3.71634e-05
3.71109e-05
3.63053e-05
3.7374e-05
3.72959e-05
3.72959e-05
5.31147e-05
3.71931e-05
3.70931e-05
3.72464e-05
3.72442e-05
3.71762e-05
3.71762e-05
5.31163e-05
3.71932e-05
3.73701e-05
3.73777e-05
3.73044e-05
3.73768e-05
3.73701e-05
3.73777e-05
3.73768e-05
3.73044e-05
3.71731e-05
3.94122e-05
3.71676e-05
3.67259e-05
3.70959e-05
3.71022e-05
3.60207e-05
3.64211e-05
3.71634e-05
3.71109e-05
3.63054e-05
3.71731e-05
3.94124e-05
3.71676e-05
3.67256e-05
3.70959e-05
3.71022e-05
3.64211e-05
3.60206e-05
3.71109e-05
3.71634e-05
3.63054e-05
3.73773e-05
3.73765e-05
3.7377e-05
3.7377e-05
3.73773e-05
3.73765e-05
3.7377e-05
3.7377e-05
3.73773e-05
3.73765e-05
3.7377e-05
3.7377e-05
3.71133e-05
3.71099e-05
3.64241e-05
3.64241e-05
3.71125e-05
3.71125e-05
3.64261e-05
3.71133e-05
3.71099e-05
3.64241e-05
3.64241e-05
3.71125e-05
3.71125e-05
3.64261e-05
3.71133e-05
3.71099e-05
3.64241e-05
3.64241e-05
3.71125e-05
3.71125e-05
3.64261e-05
3.71133e-05
3.71099e-05
3.64241e-05
3.64241e-05
3.71125e-05
3.71125e-05
3.64261e-05
3.73701e-05
3.73777e-05
3.73768e-05
3.73044e-05
3.70959e-05
3.71022e-05
3.60203e-05
3.64211e-05
3.71634e-05
3.71109e-05
3.63054e-05
3.71731e-05
3.94119e-05
3.71676e-05
3.67259e-05
3.70959e-05
3.71022e-05
3.64211e-05
3.60209e-05
3.71109e-05
3.71634e-05
3.63053e-05
3.71731e-05
3.94124e-05
3.71676e-05
3.67256e-05
3.7374e-05
3.72959e-05
3.72959e-05
5.31169e-05
3.71931e-05
3.70931e-05
3.72451e-05
3.72462e-05
3.71762e-05
3.71762e-05
5.3117e-05
3.71931e-05
3.73701e-05
3.73777e-05
3.73768e-05
3.73044e-05
3.70959e-05
3.71022e-05
3.64211e-05
3.60209e-05
3.71109e-05
3.71634e-05
3.63054e-05
3.70959e-05
3.71022e-05
3.64211e-05
3.60209e-05
3.71109e-05
3.71634e-05
3.63054e-05
3.71731e-05
3.94124e-05
3.71676e-05
3.67257e-05
3.71731e-05
3.94123e-05
3.71676e-05
3.67259e-05
3.70931e-05
3.72461e-05
3.72466e-05
3.71762e-05
3.71762e-05
5.31168e-05
3.71931e-05
5.31167e-05
3.71931e-05
5.51073e-05
6.49012e-05
5.51091e-05
6.49041e-05
3.65919e-05
3.65919e-05
3.52791e-05
3.40736e-05
3.40739e-05
7.47336e-05
6.76816e-05
7.47374e-05
6.76855e-05
3.49732e-05
3.20354e-05
3.20354e-05
3.34694e-05
3.34684e-05
3.58855e-05
4.08623e-05
3.66026e-05
4.51394e-05
3.52756e-05
3.56359e-05
3.58928e-05
3.53772e-05
3.60473e-05
3.42285e-05
3.53823e-05
3.52757e-05
3.56354e-05
3.58928e-05
3.53772e-05
3.60473e-05
3.42293e-05
3.53823e-05
3.56372e-05
5.02063e-05
4.64468e-05
3.4893e-05
3.56376e-05
5.02052e-05
4.64466e-05
3.48935e-05
3.49995e-05
3.48728e-05
3.27111e-05
3.4402e-05
3.38549e-05
3.4886e-05
3.41794e-05
3.49995e-05
3.48728e-05
3.27119e-05
3.4402e-05
3.3854e-05
3.4886e-05
3.41795e-05
3.6591e-05
3.65932e-05
3.52791e-05
3.4075e-05
3.40714e-05
5.51085e-05
6.49037e-05
7.47343e-05
6.7684e-05
3.49732e-05
3.20365e-05
3.20329e-05
3.34676e-05
3.34712e-05
7.47364e-05
6.76831e-05
3.52759e-05
3.56356e-05
3.58928e-05
3.53772e-05
3.60472e-05
3.42286e-05
3.53823e-05
3.58858e-05
4.08629e-05
3.66022e-05
4.51424e-05
3.52758e-05
3.58928e-05
3.56358e-05
3.53772e-05
3.60472e-05
3.53823e-05
3.42284e-05
3.56369e-05
5.02063e-05
4.64464e-05
3.48941e-05
3.49994e-05
3.48728e-05
3.2711e-05
3.4402e-05
3.38541e-05
3.4886e-05
3.41797e-05
3.56369e-05
5.02083e-05
4.6448e-05
3.48937e-05
3.49994e-05
3.48728e-05
3.4402e-05
3.27107e-05
3.4886e-05
3.38546e-05
3.41796e-05
3.58857e-05
4.08607e-05
3.66025e-05
4.51416e-05
3.52757e-05
3.58928e-05
3.56355e-05
3.53772e-05
3.60472e-05
3.53823e-05
3.42293e-05
3.58857e-05
4.08639e-05
3.66021e-05
4.51411e-05
3.49995e-05
3.48728e-05
3.27101e-05
3.4402e-05
3.38547e-05
3.4886e-05
3.41796e-05
3.56375e-05
5.0206e-05
4.64442e-05
3.48935e-05
3.49994e-05
3.48728e-05
3.4402e-05
3.27118e-05
3.4886e-05
3.38538e-05
3.41795e-05
3.5637e-05
5.02066e-05
4.64488e-05
3.48933e-05
3.65924e-05
3.65909e-05
3.52791e-05
3.40725e-05
3.40744e-05
5.51095e-05
6.49028e-05
7.47388e-05
6.76845e-05
3.49732e-05
3.20338e-05
3.20372e-05
3.34696e-05
3.3468e-05
7.47358e-05
6.76855e-05
3.52759e-05
3.58928e-05
3.56354e-05
3.53772e-05
3.60472e-05
3.53823e-05
3.42291e-05
3.58864e-05
4.08632e-05
3.6602e-05
4.51416e-05
3.58867e-05
4.08623e-05
3.66023e-05
4.51404e-05
3.49993e-05
3.48729e-05
3.4402e-05
3.27117e-05
3.4886e-05
3.38541e-05
3.41796e-05
3.49994e-05
3.48728e-05
3.4402e-05
3.27116e-05
3.4886e-05
3.38536e-05
3.41798e-05
3.56362e-05
5.02075e-05
4.64485e-05
3.4894e-05
3.56365e-05
5.02069e-05
4.64464e-05
3.48943e-05
5.51091e-05
6.49027e-05
5.51091e-05
6.49033e-05
3.49732e-05
3.2037e-05
3.20357e-05
3.34673e-05
3.34676e-05
7.47349e-05
6.76848e-05
7.47364e-05
6.76863e-05
7.65455e-05
8.0862e-05
7.65497e-05
8.08662e-05
3.17174e-05
3.17151e-05
3.3264e-05
3.09199e-05
3.09202e-05
8.40073e-05
8.185e-05
8.4011e-05
8.18535e-05
3.29547e-05
3.0303e-05
3.03033e-05
3.07461e-05
3.07425e-05
3.39686e-05
5.13454e-05
3.4679e-05
5.46164e-05
3.30533e-05
3.24569e-05
3.39297e-05
3.34086e-05
3.38956e-05
3.15552e-05
3.34679e-05
3.30535e-05
3.24558e-05
3.39297e-05
3.34085e-05
3.38957e-05
3.15562e-05
3.34679e-05
3.37819e-05
5.83616e-05
5.55899e-05
3.30854e-05
3.3782e-05
5.83618e-05
5.55893e-05
3.30859e-05
3.27686e-05
3.29351e-05
3.06288e-05
3.25726e-05
3.13737e-05
3.30159e-05
3.19174e-05
3.27687e-05
3.29351e-05
3.06293e-05
3.25726e-05
3.13723e-05
3.30159e-05
3.19176e-05
3.17148e-05
3.17185e-05
3.3264e-05
3.09212e-05
3.09166e-05
7.65469e-05
8.08642e-05
8.40082e-05
8.1852e-05
3.29547e-05
3.0304e-05
3.03003e-05
3.07429e-05
3.0747e-05
8.40093e-05
8.18513e-05
3.30537e-05
3.2456e-05
3.39297e-05
3.34086e-05
3.38955e-05
3.15555e-05
3.34679e-05
3.39701e-05
5.13473e-05
3.46783e-05
5.46198e-05
3.30535e-05
3.39297e-05
3.24567e-05
3.34085e-05
3.38954e-05
3.34679e-05
3.15546e-05
3.37798e-05
5.83625e-05
5.55911e-05
3.30882e-05
3.27684e-05
3.29352e-05
3.06286e-05
3.25726e-05
3.13722e-05
3.30159e-05
3.19178e-05
3.37797e-05
5.83653e-05
5.55914e-05
3.30877e-05
3.27683e-05
3.2935e-05
3.25726e-05
3.06282e-05
3.30159e-05
3.13735e-05
3.19175e-05
3.3969e-05
5.13443e-05
3.46788e-05
5.46167e-05
3.30534e-05
3.39297e-05
3.2456e-05
3.34086e-05
3.38956e-05
3.34679e-05
3.15565e-05
3.39683e-05
5.13473e-05
3.46789e-05
5.46176e-05
3.27687e-05
3.29352e-05
3.0628e-05
3.25727e-05
3.13734e-05