/*--------------------------------*- C++ -*----------------------------------*\
| =========                 |                                                 |
| \\      /  F ield         | OpenFOAM: The Open Source CFD Toolbox           |
|  \\    /   O peration     | Version:  v1912                                 |
|   \\  /    A nd           | Website:  www.openfoam.com                      |
|    \\/     M anipulation  |                                                 |
\*---------------------------------------------------------------------------*/
FoamFile
{
    version     2.0;
    format      ascii;
    class       volScalarField;
    location    "100";
    object      p;
}
// * * * * * * * * * * * * * * * * * * * * * * * * * * * * * * * * * * * * * //

dimensions      [0 2 -2 0 0 0 0];


internalField   nonuniform List<scalar> 
57100
(
0.00359272
0.00359301
0.00359301
0.0035959
0.00353637
0.00353709
0.00353709
0.00354025
0.00348602
0.00348601
0.00348601
0.00348872
0.00343365
0.00343366
0.00343366
0.00343636
0.00338232
0.00338232
0.00338232
0.00338498
0.00333234
0.00333235
0.00333235
0.00333497
0.00328381
0.00328384
0.00328384
0.00328641
0.00323657
0.00323661
0.00323661
0.00323915
0.00319044
0.00319048
0.00319048
0.00319299
0.0031452
0.00314524
0.00314524
0.00314773
0.00310068
0.00310073
0.00310073
0.00310318
0.00305676
0.00305681
0.00305681
0.00305924
0.00301336
0.0030134
0.0030134
0.00301581
0.00297042
0.00297048
0.00297047
0.00297287
0.00292792
0.00292796
0.00292795
0.00293036
0.00288583
0.00288586
0.00288586
0.00288825
0.00284413
0.00284415
0.00284415
0.00284653
0.0028028
0.00280281
0.00280281
0.00280519
0.00276186
0.00276186
0.00276186
0.00276422
0.0027214
0.00272139
0.00272139
0.00272372
0.00268174
0.00268169
0.00268169
0.00268399
0.00264308
0.00264299
0.00264299
0.00264523
0.00260539
0.0026053
0.0026053
0.00260749
0.00256844
0.00256836
0.00256836
0.00257051
0.00253192
0.00253185
0.00253185
0.00253398
0.00249562
0.00249555
0.00249555
0.00249767
0.00245941
0.00245933
0.00245933
0.00246146
0.00242321
0.00242315
0.00242315
0.00242527
0.00238703
0.00238696
0.00238696
0.00238908
0.00235084
0.00235077
0.00235077
0.00235289
0.00360593
0.00360621
0.00360621
0.00360593
0.00360621
0.00360621
0.00360693
0.00360693
0.00360693
0.00360693
0.00360621
0.00360621
0.00360593
0.00360621
0.00360621
0.00360593
0.0035959
0.00354696
0.003593
0.00359301
0.00354895
0.00354895
0.0035959
0.00354696
0.00359301
0.00359301
0.00354894
0.00354895
0.00359301
0.00354894
0.00354895
0.0035959
0.00354696
0.00359301
0.00354894
0.00354894
0.00354696
0.00354025
0.00349586
0.00353709
0.00353709
0.00349913
0.00349913
0.00354025
0.00349586
0.00353709
0.00353709
0.00349913
0.00349913
0.00353709
0.00349913
0.00349913
0.00354025
0.00349586
0.00353708
0.00349913
0.00349913
0.00349586
0.00348872
0.00344345
0.00348601
0.00348601
0.00344667
0.00344667
0.00348872
0.00344345
0.00348601
0.00348601
0.00344667
0.00344667
0.00348601
0.00344667
0.00344667
0.00348872
0.00344345
0.00348601
0.00344667
0.00344667
0.00344345
0.00343636
0.00339188
0.00343366
0.00343366
0.00339504
0.00339504
0.00343636
0.00339188
0.00343366
0.00343366
0.00339504
0.00339504
0.00343366
0.00339504
0.00339504
0.00343636
0.00339188
0.00343366
0.00339504
0.00339504
0.00339188
0.00338498
0.00334164
0.00338232
0.00338232
0.0033447
0.00334471
0.00338498
0.00334164
0.00338232
0.00338232
0.0033447
0.00334471
0.00338232
0.0033447
0.0033447
0.00338498
0.00334164
0.00338232
0.0033447
0.0033447
0.00334164
0.00333497
0.00329288
0.00333235
0.00333235
0.00329584
0.00329584
0.00333497
0.00329287
0.00333235
0.00333235
0.00329584
0.00329584
0.00333235
0.00329584
0.00329584
0.00333497
0.00329288
0.00333235
0.00329584
0.00329584
0.00329287
0.00328641
0.00324544
0.00328384
0.00328384
0.0032483
0.0032483
0.00328641
0.00324544
0.00328384
0.00328384
0.00324831
0.0032483
0.00328384
0.00324831
0.00324831
0.00328641
0.00324544
0.00328384
0.00324831
0.00324831
0.00324544
0.00323915
0.00319913
0.00323661
0.00323661
0.00320192
0.00320192
0.00323915
0.00319913
0.00323661
0.00323661
0.00320192
0.00320192
0.00323661
0.00320192
0.00320192
0.00323915
0.00319913
0.00323661
0.00320192
0.00320192
0.00319913
0.00319299
0.00315374
0.00319048
0.00319048
0.00315648
0.00315648
0.00319299
0.00315374
0.00319048
0.00319048
0.00315648
0.00315648
0.00319048
0.00315648
0.00315648
0.00319299
0.00315374
0.00319048
0.00315648
0.00315648
0.00315374
0.00314773
0.0031091
0.00314524
0.00314524
0.0031118
0.0031118
0.00314772
0.0031091
0.00314524
0.00314524
0.0031118
0.0031118
0.00314524
0.0031118
0.0031118
0.00314773
0.0031091
0.00314524
0.0031118
0.0031118
0.0031091
0.00310318
0.00306507
0.00310073
0.00310073
0.00306774
0.00306774
0.00310318
0.00306506
0.00310073
0.00310073
0.00306774
0.00306774
0.00310073
0.00306774
0.00306774
0.00310318
0.00306507
0.00310073
0.00306774
0.00306774
0.00306506
0.00305924
0.00302155
0.00305681
0.00305681
0.00302421
0.00302421
0.00305924
0.00302155
0.00305681
0.00305681
0.00302421
0.00302421
0.00305681
0.00302421
0.00302421
0.00305924
0.00302155
0.00305681
0.00302421
0.00302421
0.00302155
0.00301581
0.00297855
0.0030134
0.0030134
0.00298116
0.00298116
0.00301581
0.00297856
0.0030134
0.0030134
0.00298118
0.00298115
0.0030134
0.00298116
0.00298116
0.00301581
0.00297855
0.0030134
0.00298118
0.00298116
0.00297855
0.00297287
0.00293598
0.00297045
0.00297047
0.00293854
0.00293854
0.00297288
0.00293598
0.00297047
0.00297046
0.00293854
0.00293854
0.00297045
0.00293855
0.00293854
0.00297287
0.00293598
0.00297048
0.00293854
0.00293854
0.00293598
0.00293036
0.00289382
0.00292795
0.00292795
0.00289634
0.00289634
0.00293036
0.00289382
0.00292795
0.00292795
0.00289634
0.00289634
0.00292796
0.00289634
0.00289634
0.00293036
0.00289382
0.00292796
0.00289634
0.00289634
0.00289382
0.00288825
0.00285205
0.00288586
0.00288586
0.00285454
0.00285454
0.00288825
0.00285205
0.00288586
0.00288586
0.00285454
0.00285454
0.00288586
0.00285454
0.00285454
0.00288825
0.00285205
0.00288586
0.00285454
0.00285454
0.00285205
0.00284653
0.00281066
0.00284415
0.00284415
0.00281311
0.00281311
0.00284653
0.00281066
0.00284415
0.00284415
0.00281311
0.00281311
0.00284415
0.00281311
0.00281311
0.00284653
0.00281066
0.00284415
0.00281311
0.00281311
0.00281066
0.00280519
0.00276964
0.00280281
0.00280281
0.00277206
0.00277206
0.00280519
0.00276964
0.00280281
0.00280281
0.00277206
0.00277206
0.00280281
0.00277206
0.00277206
0.00280519
0.00276964
0.00280281
0.00277206
0.00277206
0.00276964
0.00276422
0.00272906
0.00276186
0.00276186
0.00273144
0.00273144
0.00276422
0.00272906
0.00276186
0.00276186
0.00273144
0.00273144
0.00276186
0.00273144
0.00273144
0.00276422
0.00272906
0.00276186
0.00273144
0.00273145
0.00272906
0.00272372
0.00268923
0.00272139
0.00272139
0.00269153
0.00269153
0.00272372
0.00268923
0.00272139
0.00272139
0.00269153
0.00269153
0.00272139
0.00269153
0.00269153
0.00272372
0.00268923
0.00272139
0.00269153
0.00269153
0.00268923
0.00268399
0.00265033
0.00268169
0.00268169
0.00265257
0.00265257
0.00268399
0.00265033
0.00268169
0.00268169
0.00265256
0.00265257
0.00268169
0.00265257
0.00265257
0.00268399
0.00265033
0.00268169
0.00265257
0.00265257
0.00265033
0.00264523
0.00261246
0.00264299
0.00264299
0.00261464
0.00261464
0.00264523
0.00261246
0.00264299
0.00264299
0.00261464
0.00261464
0.00264299
0.00261464
0.00261464
0.00264523
0.00261246
0.00264299
0.00261464
0.00261464
0.00261246
0.00260749
0.0025754
0.0026053
0.0026053
0.00257754
0.00257754
0.00260749
0.0025754
0.0026053
0.0026053
0.00257754
0.00257754
0.0026053
0.00257754
0.00257754
0.00260749
0.0025754
0.0026053
0.00257754
0.00257754
0.0025754
0.00257051
0.00253883
0.00256836
0.00256836
0.00254095
0.00254095
0.00257051
0.00253883
0.00256836
0.00256836
0.00254095
0.00254095
0.00256836
0.00254095
0.00254095
0.00257051
0.00253883
0.00256836
0.00254095
0.00254095
0.00253883
0.00253398
0.0025025
0.00253185
0.00253185
0.00250461
0.00250461
0.00253398
0.0025025
0.00253185
0.00253185
0.00250461
0.00250461
0.00253185
0.00250461
0.00250461
0.00253398
0.0025025
0.00253185
0.00250461
0.00250461
0.0025025
0.00249767
0.00246628
0.00249555
0.00249555
0.00246838
0.00246838
0.00249767
0.00246628
0.00249555
0.00249555
0.00246838
0.00246838
0.00249555
0.00246838
0.00246838
0.00249767
0.00246628
0.00249555
0.00246838
0.00246838
0.00246628
0.00246146
0.00243009
0.00245933
0.00245933
0.00243219
0.00243219
0.00246146
0.00243009
0.00245933
0.00245933
0.00243219
0.00243219
0.00245933
0.00243219
0.00243219
0.00246146
0.00243009
0.00245933
0.00243219
0.00243219
0.00243009
0.00242527
0.0023939
0.00242315
0.00242314
0.00239601
0.00239601
0.00242527
0.0023939
0.00242314
0.00242315
0.00239601
0.00239601
0.00242315
0.00239601
0.00239601
0.00242527
0.0023939
0.00242315
0.00239601
0.00239601
0.0023939
0.00238908
0.00235772
0.00238696
0.00238696
0.00235982
0.00235982
0.00238908
0.00235772
0.00238696
0.00238696
0.00235982
0.00235982
0.00238696
0.00235982
0.00235982
0.00238908
0.00235772
0.00238696
0.00235982
0.00235982
0.00235772
0.00235289
0.00235077
0.00235077
0.00235289
0.00235077
0.00235077
0.00235077
0.00235289
0.00235077
0.00361416
0.00362372
0.00361864
0.00361864
0.00364093
0.00362767
0.00365578
0.00362182
0.00364093
0.00362768
0.00362183
0.00365578
0.00363223
0.00365955
0.00365954
0.00356921
0.00359484
0.00359736
0.00355904
0.00357338
0.00355955
0.00356918
0.00359483
0.00359736
0.00355902
0.00359272
0.00359272
0.00359272
0.00354838
0.00354838
0.00354838
0.00354838
0.00356732
0.0035943
0.0035929
0.00357606
0.00359678
0.00356396
0.00357687
0.00357347
0.00355956
0.00356732
0.00359291
0.00359431
0.00357606
0.00359677
0.00357687
0.00356396
0.00359791
0.0035979
0.00357022
0.00356462
0.00356462
0.00352281
0.00354284
0.00354357
0.00352131
0.00354158
0.00352081
0.00352281
0.00354284
0.00354357
0.00352131
0.00353637
0.00353636
0.00353636
0.00349917
0.00349917
0.00349917
0.00349917
0.00352139
0.00354238
0.00353679
0.00352485
0.00354105
0.00352166
0.00352468
0.00354158
0.0035208
0.00352139
0.00353679
0.00354238
0.00352484
0.00354105
0.00352468
0.00352166
0.00354366
0.00354366
0.00352173
0.00352222
0.00352222
0.00347045
0.00348923
0.00349027
0.00346944
0.00348885
0.00346914
0.00347045
0.00348923
0.00349027
0.00346944
0.00348602
0.00348602
0.00348602
0.00344665
0.00344665
0.00344665
0.00344665
0.00346955
0.00348951
0.003486
0.00347287
0.0034891
0.00346981
0.00347283
0.00348885
0.00346914
0.00346955
0.003486
0.00348951
0.00347287
0.00348909
0.00347283
0.00346981
0.00348983
0.00348983
0.00346965
0.00346995
0.00346995
0.00341788
0.00343653
0.00343739
0.00341712
0.00343632
0.00341693
0.00341788
0.00343653
0.00343739
0.00341712
0.00343365
0.00343365
0.00343365
0.00339504
0.00339504
0.00339504
0.00339504
0.00341737
0.00343689
0.00343364
0.00342071
0.00343668
0.00341751
0.0034207
0.00343632
0.00341693
0.00341737
0.00343364
0.00343689
0.00342071
0.00343668
0.0034207
0.0034175
0.00343695
0.00343695
0.00341752
0.00341747
0.00341747
0.00336667
0.00338505
0.00338566
0.00336614
0.00338489
0.00336599
0.00336667
0.00338505
0.00338566
0.00336614
0.00338232
0.00338232
0.00338232
0.00334469
0.00334469
0.00334469
0.00334469
0.0033664
0.00338537
0.0033823
0.00336969
0.00338523
0.00336649
0.00336966
0.00338489
0.00336599
0.0033664
0.0033823
0.00338537
0.00336969
0.00338523
0.00336966
0.00336649
0.00338536
0.00338535
0.00336657
0.00336641
0.00336641
0.00331703
0.00333499
0.00333543
0.00331665
0.00333487
0.00331651
0.00331703
0.00333499
0.00333543
0.00331665
0.00333234
0.00333234
0.00333234
0.00329581
0.00329581
0.00329581
0.00329581
0.00331691
0.00333528
0.00333232
0.00332009
0.00333518
0.00331697
0.00332006
0.00333486
0.00331652
0.00331691
0.00333232
0.00333528
0.00332009
0.00333518
0.00332006
0.00331697
0.00333525
0.00333525
0.00331708
0.00331688
0.00331688
0.00326886
0.00328642
0.00328673
0.00326859
0.0032863
0.00326847
0.00326886
0.00328642
0.00328673
0.00326859
0.00328381
0.00328381
0.00328381
0.00324827
0.00324827
0.00324827
0.00324827
0.00326883
0.00328667
0.00328379
0.00327192
0.00328659
0.00326889
0.00327187
0.0032863
0.00326847
0.00326884
0.0032838
0.00328667
0.00327194
0.00328659
0.00327188
0.00326889
0.00328665
0.00328665
0.00326899
0.0032688
0.0032688
0.00322196
0.00323916
0.00323938
0.00322177
0.00323905
0.00322166
0.00322196
0.00323916
0.00323938
0.00322177
0.00323657
0.00323657
0.00323657
0.00320188
0.00320188
0.00320188
0.00320188
0.003222
0.00323939
0.00323657
0.00322498
0.00323931
0.00322205
0.00322494
0.00323905
0.00322166
0.003222
0.00323657
0.00323939
0.00322498
0.00323931
0.00322494
0.00322205
0.00323937
0.00323937
0.00322216
0.00322197
0.00322197
0.00317612
0.003193
0.00319317
0.00317597
0.0031929
0.00317587
0.00317612
0.003193
0.00319317
0.00317597
0.00319044
0.00319044
0.00319044
0.00315643
0.00315643
0.00315643
0.00315643
0.0031762
0.00319322
0.00319044
0.00317909
0.00319315
0.00317624
0.00317905
0.0031929
0.00317587
0.0031762
0.00319044
0.00319322
0.00317909
0.00319315
0.00317905
0.00317624
0.0031932
0.0031932
0.00317633
0.00317615
0.00317615
0.00313113
0.00314774
0.00314788
0.003131
0.00314765
0.0031309
0.00313113
0.00314774
0.00314788
0.00313099
0.0031452
0.0031452
0.0031452
0.00311175
0.00311175
0.00311175
0.00311175
0.00313123
0.00314794
0.0031452
0.00313405
0.00314788
0.00313126
0.00313401
0.00314765
0.0031309
0.00313123
0.0031452
0.00314794
0.00313405
0.00314788
0.00313401
0.00313126
0.00314792
0.00314792
0.00313133
0.00313117
0.00313117
0.00308681
0.00310319
0.00310332
0.00308669
0.00310311
0.0030866
0.00308681
0.0031032
0.00310332
0.00308669
0.00310068
0.00310068
0.00310068
0.00306769
0.00306769
0.00306769
0.00306769
0.00308693
0.0031034
0.00310069
0.0030897
0.00310335
0.00308696
0.00308966
0.00310311
0.0030866
0.00308693
0.00310069
0.0031034
0.0030897
0.00310335
0.00308966
0.00308696
0.00310337
0.00310337
0.00308701
0.00308685
0.00308685
0.00304307
0.00305925
0.00305938
0.00304294
0.00305917
0.00304286
0.00304307
0.00305925
0.00305938
0.00304294
0.00305676
0.00305676
0.00305676
0.00302416
0.00302416
0.00302416
0.00302416
0.0030432
0.00305944
0.00305677
0.00304591
0.00305942
0.00304321
0.00304588
0.00305917
0.00304286
0.0030432
0.00305677
0.00305944
0.00304591
0.00305942
0.00304588
0.00304321
0.00305941
0.00305941
0.00304325
0.00304309
0.00304309
0.00299982
0.00301582
0.00301594
0.00299969
0.00301574
0.00299961
0.00299982
0.00301582
0.00301594
0.00299969
0.00301336
0.00301336
0.00301336
0.00298112
0.00298112
0.00298112
0.00298112
0.00299997
0.003016
0.00301337
0.00300263
0.003016
0.00299995
0.0030026
0.00301574
0.00299961
0.00299997
0.00301337
0.003016
0.00300263
0.003016
0.0030026
0.00299995
0.00301596
0.00301596
0.00299999
0.00299982
0.00299982
0.00295702
0.00297285
0.00297298
0.00295689
0.00297278
0.00295682
0.00295702
0.00297284
0.00297298
0.00295688
0.00297043
0.00297042
0.00297042
0.00293851
0.00293851
0.00293851
0.00293851
0.00295719
0.00297303
0.00297044
0.0029598
0.00297305
0.00295715
0.00295978
0.00297278
0.00295682
0.00295719
0.00297044
0.00297302
0.0029598
0.00297305
0.00295977
0.00295715
0.00297299
0.00297298
0.00295722
0.00295701
0.002957
0.00291464
0.00293032
0.00293045
0.00291451
0.00293026
0.00291446
0.00291464
0.00293032
0.00293045
0.00291451
0.00292792
0.00292792
0.00292792
0.00289632
0.00289632
0.00289632
0.00289631
0.00291484
0.0029305
0.00292794
0.00291739
0.00293054
0.00291478
0.00291738
0.00293026
0.00291446
0.00291484
0.00292794
0.0029305
0.00291739
0.00293054
0.00291738
0.00291477
0.00293044
0.00293044
0.00291485
0.00291463
0.00291463
0.00287267
0.0028882
0.00288832
0.00287254
0.00288814
0.00287249
0.00287267
0.0028882
0.00288832
0.00287254
0.00288583
0.00288583
0.00288583
0.00285452
0.00285452
0.00285452
0.00285452
0.00287289
0.00288837
0.00288585
0.00287539
0.00288844
0.0028728
0.00287539
0.00288815
0.00287249
0.00287289
0.00288585
0.00288837
0.00287539
0.00288844
0.00287539
0.0028728
0.00288831
0.00288831
0.00287289
0.00287265
0.00287265
0.00283107
0.00284647
0.00284659
0.00283095
0.00284643
0.00283091
0.00283107
0.00284647
0.00284659
0.00283095
0.00284413
0.00284413
0.00284413
0.0028131
0.0028131
0.0028131
0.0028131
0.00283132
0.00284663
0.00284415
0.00283378
0.00284672
0.0028312
0.00283378
0.00284643
0.00283091
0.00283132
0.00284415
0.00284663
0.00283378
0.00284672
0.00283378
0.0028312
0.00284657
0.00284657
0.00283131
0.00283105
0.00283105
0.00278984
0.00280511
0.00280522
0.00278973
0.00280507
0.0027897
0.00278984
0.00280511
0.00280522
0.00278973
0.0028028
0.0028028
0.0028028
0.00277205
0.00277205
0.00277205
0.00277205
0.00279011
0.00280526
0.00280282
0.00279254
0.00280537
0.00278997
0.00279255
0.00280507
0.0027897
0.00279011
0.00280282
0.00280526
0.00279254
0.00280537
0.00279255
0.00278996
0.0028052
0.0028052
0.0027901
0.00278982
0.00278982
0.00274901
0.00276414
0.00276424
0.00274891
0.00276411
0.00274888
0.00274901
0.00276414
0.00276424
0.00274891
0.00276186
0.00276186
0.00276186
0.00273146
0.00273146
0.00273146
0.00273146
0.00274928
0.00276426
0.00276187
0.00275168
0.00276439
0.00274912
0.0027517
0.00276411
0.00274888
0.00274928
0.00276187
0.00276426
0.00275168
0.00276439
0.0027517
0.00274912
0.00276422
0.00276422
0.00274928
0.00274898
0.00274898
0.00270873
0.00272362
0.0027237
0.00270865
0.00272358
0.00270863
0.00270873
0.00272362
0.0027237
0.00270865
0.0027214
0.0027214
0.0027214
0.00269157
0.00269157
0.00269157
0.00269157
0.00270901
0.00272373
0.00272142
0.00271138
0.00272386
0.00270885
0.00271142
0.00272359
0.00270862
0.00270901
0.00272142
0.00272373
0.00271138
0.00272386
0.00271142
0.00270885
0.00272368
0.00272368
0.00270904
0.0027087
0.0027087
0.00266937
0.00268391
0.00268398
0.00266931
0.00268389
0.00266931
0.00266937
0.00268391
0.00268398
0.00266931
0.00268174
0.00268174
0.00268174
0.00265265
0.00265265
0.00265265
0.00265265
0.00266958
0.00268397
0.00268174
0.00267192
0.00268409
0.00266944
0.00267196
0.0026839
0.0026693
0.00266958
0.00268174
0.00268397
0.00267192
0.00268409
0.00267196
0.00266944
0.00268395
0.00268395
0.00266964
0.00266934
0.00266934
0.00263106
0.00264523
0.00264526
0.00263103
0.00264522
0.00263103
0.00263106
0.00264523
0.00264526
0.00263103
0.00264308
0.00264308
0.00264308
0.00261473
0.00261473
0.00261473
0.00261473
0.0026312
0.00264524
0.00264303
0.00263348
0.0026453
0.00263112
0.00263351
0.00264522
0.00263103
0.0026312
0.00264303
0.00264524
0.00263348
0.0026453
0.00263351
0.00263112
0.00264525
0.00264525
0.00263128
0.00263104
0.00263104
0.0025937
0.00260757
0.00260758
0.00259369
0.00260757
0.00259369
0.0025937
0.00260757
0.00260758
0.00259369
0.00260539
0.00260538
0.00260539
0.00257762
0.00257762
0.00257762
0.00257762
0.00259379
0.00260755
0.00260533
0.00259601
0.00260757
0.00259374
0.00259604
0.00260757
0.00259369
0.00259379
0.00260533
0.00260755
0.00259601
0.00260757
0.00259604
0.00259374
0.00260758
0.00260758
0.00259385
0.00259369
0.00259369
0.00255694
0.00257063
0.00257063
0.00255693
0.00257063
0.00255693
0.00255694
0.00257063
0.00257063
0.00255693
0.00256844
0.00256844
0.00256844
0.00254102
0.00254102
0.00254102
0.00254102
0.00255701
0.00257059
0.00256838
0.0025592
0.0025706
0.00255698
0.00255922
0.00257063
0.00255693
0.00255701
0.00256838
0.00257059
0.0025592
0.0025706
0.00255922
0.00255698
0.00257064
0.00257064
0.00255708
0.00255693
0.00255693
0.00252053
0.00253411
0.00253411
0.00252052
0.00253411
0.00252052
0.00252052
0.00253411
0.00253411
0.00252052
0.00253192
0.00253192
0.00253192
0.00250468
0.00250468
0.00250468
0.00250468
0.00252059
0.00253407
0.00253187
0.00252276
0.00253407
0.00252056
0.00252278
0.00253411
0.00252052
0.00252059
0.00253187
0.00253407
0.00252276
0.00253407
0.00252278
0.00252056
0.00253412
0.00253412
0.00252065
0.00252052
0.00252052
0.00248427
0.00249781
0.00249781
0.00248426
0.00249781
0.00248427
0.00248427
0.00249781
0.00249781
0.00248426
0.00249562
0.00249562
0.00249562
0.00246846
0.00246846
0.00246846
0.00246845
0.00248433
0.00249777
0.00249557
0.00248649
0.00249776
0.0024843
0.00248651
0.00249781
0.00248427
0.00248433
0.00249557
0.00249777
0.00248649
0.00249776
0.00248651
0.0024843
0.00249782
0.00249782
0.00248438
0.00248426
0.00248426
0.00244808
0.0024616
0.0024616
0.00244807
0.0024616
0.00244807
0.00244808
0.0024616
0.0024616
0.00244807
0.00245941
0.00245941
0.00245941
0.00243226
0.00243226
0.00243226
0.00243226
0.00244813
0.00246156
0.00245935
0.00245028
0.00246155
0.00244811
0.0024503
0.0024616
0.00244807
0.00244813
0.00245935
0.00246156
0.00245028
0.00246155
0.0024503
0.00244811
0.00246161
0.00246161
0.00244818
0.00244807
0.00244807
0.00241189
0.00242542
0.00242542
0.00241188
0.00242542
0.00241188
0.00241189
0.00242542
0.00242542
0.00241188
0.00242321
0.00242321
0.00242321
0.00239607
0.00239607
0.00239607
0.00239607
0.00241195
0.00242538
0.00242316
0.0024141
0.00242537
0.00241192
0.00241412
0.00242542
0.00241188
0.00241195
0.00242316
0.00242538
0.0024141
0.00242537
0.00241412
0.00241192
0.00242542
0.00242542
0.002412
0.00241188
0.00241188
0.00237571
0.00238923
0.00238923
0.0023757
0.00238923
0.0023757
0.00237571
0.00238923
0.00238923
0.0023757
0.00238703
0.00238703
0.00238703
0.00235989
0.00235989
0.00235989
0.00235989
0.00237576
0.00238919
0.00238698
0.00237791
0.00238918
0.00237574
0.00237793
0.00238923
0.0023757
0.00237576
0.00238698
0.00238919
0.00237791
0.00238918
0.00237793
0.00237574
0.00238924
0.00238924
0.00237581
0.0023757
0.0023757
0.00233952
0.00235305
0.00235305
0.00233951
0.00235305
0.00233952
0.00233952
0.00235305
0.00235305
0.00233952
0.00235084
0.00235084
0.00235084
0.00233957
0.00235301
0.00235079
0.00234172
0.00235299
0.00233955
0.00234174
0.00235305
0.00235079
0.00235301
0.00235299
0.00235305
0.00235305
0.00363223
0.00365952
0.00365954
0.00362493
0.00365862
0.00362489
0.00365864
0.00362903
0.00361508
0.00361509
0.00365434
0.00365435
0.00364091
0.00362767
0.00365576
0.00362182
0.00364091
0.00362767
0.00365577
0.00362182
0.00364517
0.00361905
0.00365584
0.0036107
0.00364517
0.00361903
0.00365585
0.00361071
0.00363658
0.00362515
0.00360974
0.00360825
0.00365111
0.00362024
0.00360898
0.00363658
0.00362515
0.00360974
0.00360825
0.00365112
0.00362024
0.00360898
0.00363223
0.00365954
0.00365955
0.00362489
0.00365863
0.00362903
0.00361507
0.00361509
0.00365435
0.00365435
0.00362491
0.00365863
0.00364093
0.00362767
0.00365578
0.00362183
0.00364093
0.00362768
0.00362183
0.00365578
0.00364519
0.00361905
0.00365585
0.00361072
0.0036366
0.00362515
0.00360974
0.00360825
0.00365112
0.00362024
0.00360898
0.00364519
0.00361905
0.00365585
0.00361071
0.0036366
0.00362516
0.00360826
0.00360975
0.00362024
0.00365112
0.00360898
0.00361416
0.00362372
0.00361864
0.00361864
0.00361416
0.00362373
0.00361864
0.00361864
0.00361416
0.00362372
0.00361864
0.00361864
0.00361293
0.00362179
0.00360503
0.00360503
0.00361721
0.00361721
0.00360324
0.00361293
0.00362179
0.00360503
0.00360503
0.00361721
0.00361721
0.00360324
0.00361293
0.0036218
0.00360503
0.00360503
0.00361721
0.00361721
0.00360324
0.00361293
0.0036218
0.00360503
0.00360503
0.00361721
0.00361721
0.00360324
0.00364093
0.00362768
0.00362183
0.00365578
0.00363659
0.00362515
0.00360974
0.00360825
0.00365112
0.00362024
0.00360898
0.00364519
0.00361905
0.00365585
0.00361071
0.00363659
0.00362515
0.00360825
0.00360974
0.00362024
0.00365112
0.00360898
0.00364519
0.00361904
0.00365586
0.00361071
0.00363224
0.00365954
0.00365955
0.00362487
0.00365863
0.00362904
0.00361508
0.00361508
0.00365435
0.00365436
0.00362486
0.00365864
0.00364093
0.00362768
0.00362183
0.00365577
0.0036366
0.00362516
0.00360826
0.00360975
0.00362025
0.00365113
0.00360898
0.0036366
0.00362515
0.00360826
0.00360975
0.00362025
0.00365112
0.00360899
0.00364519
0.00361904
0.00365586
0.00361071
0.00364519
0.00361906
0.00365585
0.00361072
0.00362903
0.00361508
0.00361509
0.00365436
0.00365435
0.00362487
0.00365863
0.0036249
0.00365863
0.00357339
0.00355955
0.00357347
0.00355954
0.00359787
0.0035979
0.00357023
0.00356462
0.00356462
0.00354861
0.0035619
0.00354861
0.0035619
0.00356319
0.00355055
0.00355055
0.00356212
0.00356212
0.0035692
0.00359482
0.00359737
0.00355904
0.00356734
0.00359429
0.0035929
0.00357605
0.00359677
0.00356396
0.00357688
0.00356733
0.00359429
0.0035929
0.00357605
0.00359678
0.00356397
0.00357688
0.00356419
0.00354988
0.0035591
0.00355003
0.00356418
0.00354988
0.0035591
0.00355003
0.00356153
0.00356141
0.00354915
0.00354886
0.00356097
0.00356195
0.00354728
0.00356152
0.00356141
0.00354915
0.00354886
0.00356097
0.00356195
0.00354728
0.00359786
0.00359791
0.00357024
0.00356462
0.00356462
0.0035735
0.00355955
0.00354861
0.0035619
0.0035632
0.00355055
0.00355055
0.00356212
0.00356212
0.0035486
0.0035619
0.00356732
0.0035943
0.0035929
0.00357606
0.00359678
0.00356396
0.00357687
0.00356919
0.00359484
0.00359735
0.00355904
0.00356733
0.0035929
0.0035943
0.00357606
0.00359678
0.00357687
0.00356396
0.00356417
0.00354988
0.0035591
0.00355003
0.00356151
0.00356141
0.00354915
0.00354886
0.00356096
0.00356195
0.00354728
0.00356418
0.00354987
0.00355911
0.00355003
0.00356152
0.00356141
0.00354886
0.00354914
0.00356195
0.00356097
0.00354728
0.00356918
0.00359484
0.00359735
0.00355903
0.00356733
0.0035929
0.0035943
0.00357605
0.00359677
0.00357687
0.00356396
0.00356919
0.00359484
0.00359735
0.00355903
0.00356151
0.00356141
0.00354915
0.00354886
0.00356096
0.00356195
0.00354728
0.00356417
0.00354988
0.00355909
0.00355003
0.00356152
0.00356141
0.00354886
0.00354915
0.00356195
0.00356096
0.00354728
0.00356418
0.00354988
0.00355909
0.00355003
0.0035979
0.00359791
0.00357021
0.00356462
0.00356462
0.00357347
0.00355954
0.0035486
0.00356191
0.00356319
0.00355055
0.00355055
0.00356212
0.00356211
0.00354861
0.00356187
0.00356732
0.00359291
0.0035943
0.00357607
0.00359678
0.00357687
0.00356396
0.00356919
0.00359484
0.00359735
0.00355903
0.00356918
0.00359484
0.00359736
0.00355903
0.00356152
0.00356141
0.00354886
0.00354915
0.00356195
0.00356096
0.00354728
0.00356151
0.00356141
0.00354886
0.00354914
0.00356195
0.00356096
0.00354728
0.00356418
0.00354987
0.0035591
0.00355002
0.00356417
0.00354987
0.00355909
0.00355002
0.00357349
0.00355954
0.00357349
0.00355955
0.00356319
0.00355055
0.00355055
0.00356211
0.00356211
0.00354861
0.00356188
0.0035486
0.00356189
0.00354158
0.00352081
0.00354158
0.0035208
0.00354366
0.00354366
0.00352173
0.00352222
0.00352222
0.00349534
0.00351429
0.00349534
0.00351428
0.00351467
0.00349638
0.00349638
0.0035156
0.0035156
0.00352281
0.00354284
0.00354357
0.00352131
0.00352139
0.00354238
0.00353679
0.00352485
0.00354105
0.00352166
0.00352468
0.00352139
0.00354238
0.00353679
0.00352485
0.00354105
0.00352166
0.00352468
0.00351614
0.00349575
0.00351476
0.00349684
0.00351614
0.00349575
0.00351476
0.00349684
0.00351478
0.00351213
0.00349609
0.00349914
0.00351513
0.0035121
0.00349571
0.00351478
0.00351213
0.00349609
0.00349914
0.00351513
0.0035121
0.00349571
0.00354366
0.00354366
0.00352173
0.00352222
0.00352223
0.00354159
0.00352081
0.00349534
0.00351429
0.00351467
0.00349638
0.00349638
0.0035156
0.0035156
0.00349534
0.00351429
0.00352139
0.00354238
0.00353679
0.00352485
0.00354105
0.00352166
0.00352468
0.00352281
0.00354284
0.00354357
0.00352131
0.00352139
0.00353679
0.00354238
0.00352485
0.00354105
0.00352468
0.00352165
0.00351614
0.00349575
0.00351476
0.00349684
0.00351478
0.00351213
0.00349609
0.00349914
0.00351512
0.0035121
0.00349571
0.00351614
0.00349575
0.00351476
0.00349684
0.00351478
0.00351213
0.00349914
0.00349609
0.0035121
0.00351512
0.00349571
0.00352281
0.00354285
0.00354357
0.00352131
0.00352139
0.00353679
0.00354238
0.00352485
0.00354105
0.00352468
0.00352166
0.00352281
0.00354284
0.00354357
0.00352131
0.00351478
0.00351213
0.00349609
0.00349914
0.00351512
0.0035121
0.00349571
0.00351614
0.00349575
0.00351476
0.00349684
0.00351478
0.00351213
0.00349914
0.00349609
0.0035121
0.00351512
0.00349571
0.00351614
0.00349575
0.00351476
0.00349684
0.00354366
0.00354366
0.00352173
0.00352222
0.00352222
0.00354158
0.00352081
0.00349534
0.00351428
0.00351467
0.00349638
0.00349638
0.0035156
0.0035156
0.00349534
0.00351429
0.00352139
0.00353679
0.00354238
0.00352484
0.00354105
0.00352468
0.00352166
0.00352281
0.00354284
0.00354357
0.00352131
0.00352281
0.00354284
0.00354357
0.00352131
0.00351478
0.00351213
0.00349914
0.00349609
0.0035121
0.00351512
0.00349571
0.00351478
0.00351213
0.00349914
0.00349609
0.0035121
0.00351512
0.00349571
0.00351614
0.00349575
0.00351476
0.00349684
0.00351614
0.00349575
0.00351476
0.00349684
0.00354159
0.0035208
0.00354158
0.00352081
0.00351467
0.00349638
0.00349638
0.0035156
0.0035156
0.00349534
0.00351428
0.00349534
0.00351429
0.00348885
0.00346914
0.00348885
0.00346914
0.00348983
0.00348983
0.00346965
0.00346995
0.00346995
0.00344287
0.0034625
0.00344287
0.0034625
0.00346248
0.00344352
0.00344352
0.00346328
0.00346328
0.00347045
0.00348923
0.00349027
0.00346944
0.00346955
0.00348951
0.003486
0.00347287
0.0034891
0.00346981
0.00347283
0.00346955
0.00348952
0.003486
0.00347287
0.0034891
0.00346981
0.00347283
0.00346376
0.00344309
0.00346278
0.00344399
0.00346376
0.00344309
0.00346278
0.00344399
0.00346285
0.00345974
0.0034435
0.00344664
0.00346312
0.00345971
0.00344332
0.00346285
0.00345975
0.0034435
0.00344664
0.00346312
0.00345971
0.00344332
0.00348983
0.00348983
0.00346965
0.00346995
0.00346995
0.00348885
0.00346914
0.00344287
0.0034625
0.00346248
0.00344352
0.00344352
0.00346328
0.00346328
0.00344287
0.0034625
0.00346955
0.00348951
0.003486
0.00347287
0.0034891
0.00346981
0.00347283
0.00347045
0.00348923
0.00349027
0.00346944
0.00346955
0.003486
0.00348951
0.00347287
0.00348909
0.00347283
0.00346981
0.00346376
0.00344309
0.00346278
0.00344399
0.00346285
0.00345974
0.0034435
0.00344664
0.00346312
0.00345971
0.00344332
0.00346376
0.00344309
0.00346278
0.00344399
0.00346285
0.00345975
0.00344664
0.0034435
0.00345971
0.00346312
0.00344332
0.00347045
0.00348923
0.00349027
0.00346944
0.00346955
0.003486
0.00348952
0.00347287
0.0034891
0.00347283
0.00346981
0.00347045
0.00348923
0.00349027
0.00346944
0.00346285
0.00345974
0.0034435
0.00344664
0.00346312
0.00345971
0.00344332
0.00346376
0.00344309
0.00346278
0.00344399
0.00346285
0.00345974
0.00344664
0.0034435
0.00345971