/*--------------------------------*- C++ -*----------------------------------*\
| =========                 |                                                 |
| \\      /  F ield         | OpenFOAM: The Open Source CFD Toolbox           |
|  \\    /   O peration     | Version:  v1912                                 |
|   \\  /    A nd           | Website:  www.openfoam.com                      |
|    \\/     M anipulation  |                                                 |
\*---------------------------------------------------------------------------*/
FoamFile
{
    version     2.0;
    format      ascii;
    class       surfaceScalarField;
    location    "100";
    object      phi;
}
// * * * * * * * * * * * * * * * * * * * * * * * * * * * * * * * * * * * * * //

dimensions      [0 3 -1 0 0 0 0];
oriented        oriented;


internalField   nonuniform List<scalar> 
165607
(
-0.00104215
-1.46069e-05
-1.45031e-05
9.36394e-06
9.19403e-06
0.0010527
-0.000261455
-5.65765e-06
1.44838e-05
6.88151e-06
0.00105938
-4.56949e-06
-1.60012e-06
-2.19711e-06
-2.55183e-06
-6.6503e-06
-7.05753e-06
-3.16977e-06
-0.000263289
-0.000259726
-0.000262822
-0.000261432
-5.66267e-06
1.45128e-05
6.97119e-06
0.00105917
-4.57467e-06
-1.61025e-06
-2.20473e-06
-2.55622e-06
-6.64437e-06
-7.05372e-06
-3.17186e-06
-0.000259698
-0.000263261
-0.000262786
-0.000260567
5.63325e-06
5.67325e-06
-4.87207e-06
-4.86616e-06
0.000258998
-1.62184e-06
-1.62356e-06
-0.00106075
8.95285e-07
8.95908e-07
0.0010622
-0.00106267
-1.60944e-06
1.6174e-06
7.68084e-07
0.00106396
-6.67831e-07
8.21367e-07
-1.33644e-07
3.947e-07
-8.00136e-07
-1.41829e-06
-2.59022e-07
-0.00106235
-1.60434e-06
1.62807e-06
7.63384e-07
0.00106363
-6.67803e-07
8.15849e-07
-1.33688e-07
3.92075e-07
-8.02685e-07
-1.41794e-06
-2.56529e-07
-0.000261557
1.6422e-06
1.60449e-06
-6.90615e-07
-6.9378e-07
0.000259695
-1.36562e-06
-1.36725e-06
-0.00106641
6.89648e-07
6.90348e-07
0.00106777
-0.00106791
-1.56888e-06
1.37187e-06
6.62298e-07
0.00106926
-6.38745e-07
8.73016e-07
-9.2026e-08
4.43943e-07
-7.92313e-07
-1.38982e-06
-2.19724e-07
-0.00106758
-1.5636e-06
1.36668e-06
6.67634e-07
0.00106893
-6.3874e-07
8.67574e-07
-9.19958e-08
4.43888e-07
-7.92236e-07
-1.38423e-06
-2.17245e-07
-0.000262793
1.59916e-06
1.56375e-06
-6.60353e-07
-6.68539e-07
0.000260959
-1.34743e-06
-1.34889e-06
-0.00107187
6.71318e-07
6.72089e-07
0.00107322
-0.00107327
-1.56969e-06
1.34847e-06
6.44477e-07
0.00107458
-6.36959e-07
8.97067e-07
-6.8182e-08
4.60644e-07
-7.94877e-07
-1.39644e-06
-1.98582e-07
-0.00107293
-1.56435e-06
1.34832e-06
6.44551e-07
0.00107424
-6.34226e-07
8.91595e-07
-7.05011e-08
4.60594e-07
-7.9736e-07
-1.3962e-06
-1.96097e-07
-0.000264072
1.59753e-06
1.56458e-06
-6.5189e-07
-6.57529e-07
0.00026222
-1.29976e-06
-1.30104e-06
-0.00107722
6.4612e-07
6.46945e-07
0.00107853
-0.00107844
-1.56262e-06
1.30069e-06
6.15196e-07
0.0010797
-6.24289e-07
9.24793e-07
-4.43445e-08
4.85026e-07
-7.85096e-07
-1.39677e-06
-1.69576e-07
-0.0010781
-1.55722e-06
1.30046e-06
6.15198e-07
0.00107936
-6.21519e-07
9.1933e-07
-4.65885e-08
4.84963e-07
-7.87588e-07
-1.39655e-06
-1.67092e-07
-0.000265291
1.59061e-06
1.55746e-06
-6.35804e-07
-6.41457e-07
0.00026342
-1.25012e-06
-1.25123e-06
-0.00108237
6.22072e-07
6.22942e-07
0.00108363
-0.00108338
-1.55464e-06
1.25092e-06
5.89021e-07
0.00108457
-6.11879e-07
9.50607e-07
-2.38022e-08
5.10764e-07
-7.71452e-07
-1.39293e-06
-1.40814e-07
-0.00108304
-1.5492e-06
1.25063e-06
5.88975e-07
0.00108423
-6.09084e-07
9.45132e-07
-2.59431e-08
5.10686e-07
-7.73962e-07
-1.39271e-06
-1.38345e-07
-0.000266436
1.58278e-06
1.54946e-06
-6.19342e-07
-6.25009e-07
0.000264548
-1.20483e-06
-1.20586e-06
-0.00108732
6.01341e-07
6.02171e-07
0.00108853
-0.00108806
-1.54806e-06
1.20554e-06
5.67591e-07
0.00108919
-6.02001e-07
9.73798e-07
-7.45496e-09
5.36355e-07
-7.57674e-07
-1.38804e-06
-1.14208e-07
-0.00108772
-1.54264e-06
1.20526e-06
5.67589e-07
0.00108885
-5.99234e-07
9.68257e-07
-9.36741e-09
5.36264e-07
-7.60208e-07
-1.38784e-06
-1.11765e-07
-0.000267507
1.57647e-06
1.54296e-06
-6.04965e-07
-6.10679e-07
0.000265604
-1.16502e-06
-1.16678e-06
-0.00109208
5.84281e-07
5.85017e-07
0.00109325
-0.00109251
-1.54438e-06
1.16652e-06
5.50482e-07
0.00109359
-5.95999e-07
9.93193e-07
1.07711e-08
5.60499e-07
-7.45704e-07
-1.38391e-06
-9.09673e-08
-0.00109217
-1.53881e-06
1.16661e-06
5.50777e-07
0.00109325
-5.93042e-07
9.87766e-07
6.77425e-09
5.60516e-07
-7.4815e-07
-1.38362e-06
-8.84549e-08
-0.00026851
1.57268e-06
1.53891e-06
-5.93661e-07
-5.99241e-07
0.000266591
-1.1317e-06
-1.13308e-06
-0.00109667
5.70238e-07
5.70815e-07
0.0010978
-0.00109676
-1.54374e-06
1.13285e-06
5.37921e-07
0.00109779
-5.92854e-07
1.00965e-06
2.9482e-08
5.83036e-07
-7.35386e-07
-1.38094e-06
-7.08057e-08
-0.00109641
-1.53815e-06
1.13285e-06
5.37969e-07
0.00109744
-5.89951e-07
1.00422e-06
2.62818e-08
5.83068e-07
-7.37822e-07
-1.38061e-06
-6.83075e-08
-0.00026945
1.57207e-06
1.53823e-06
-5.85929e-07
-5.91579e-07
0.000267517
-1.10336e-06
-1.10461e-06
-0.00110112
5.58754e-07
5.59319e-07
0.00110221
-0.00110081
-1.54443e-06
1.10437e-06
5.27883e-07
0.0011018
-5.91221e-07
1.02483e-06
4.45785e-08
6.04403e-07
-7.25735e-07
-1.37837e-06
-5.31942e-08
-0.00110047
-1.53882e-06
1.10433e-06
5.27892e-07
0.00110145
-5.88335e-07
1.01937e-06
4.15214e-08
6.04426e-07
-7.28185e-07
-1.37806e-06
-5.07382e-08
-0.000270331
1.5729e-06
1.53893e-06
-5.79881e-07
-5.8558e-07
0.000268385
-1.07868e-06
-1.07976e-06
-0.00110543
5.48942e-07
5.49537e-07
0.00110649
-0.0011047
-1.54594e-06
1.07958e-06
5.19243e-07
0.00110565
-5.87765e-07
1.03908e-06
5.45719e-08
6.24446e-07
-7.16108e-07
-1.3757e-06
-3.81511e-08
-0.00110435
-1.54034e-06
1.07946e-06
5.19219e-07
0.0011053
-5.87681e-07
1.03358e-06
5.46583e-08
6.24448e-07
-7.18614e-07
-1.37539e-06
-3.57456e-08
-0.000271159
1.57459e-06
1.54048e-06
-5.74962e-07
-5.80708e-07
0.0002692
-1.05602e-06
-1.05711e-06
-0.00110963
5.39975e-07
5.40555e-07
0.00111066
-0.00110843
-1.54781e-06
1.05697e-06
5.10858e-07
0.00110934
-5.87075e-07
1.05264e-06
6.62744e-08
6.42924e-07
-7.05854e-07
-1.37224e-06
-2.53773e-08
-0.00110808
-1.54219e-06
1.05684e-06
5.10858e-07
0.00110899
-5.86966e-07
1.04713e-06
6.63835e-08
6.42939e-07
-7.08377e-07
-1.37193e-06
-2.3049e-08
-0.000271934
1.57659e-06
1.54235e-06
-5.70646e-07
-5.7646e-07
0.000269962
-1.03467e-06
-1.03562e-06
-0.00111372
5.31432e-07
5.32001e-07
0.00111473
-0.00111201
-1.54959e-06
1.03557e-06
5.02163e-07
0.00111288
-5.85351e-07
1.06582e-06
7.69124e-08
6.59848e-07
-6.9434e-07
-1.36741e-06
-1.46498e-08
-0.00111166
-1.54397e-06
1.03537e-06
5.02165e-07
0.00111253
-5.85225e-07
1.06024e-06
7.70347e-08
6.59879e-07
-6.96851e-07
-1.36708e-06
-1.24309e-08
-0.000272657
1.57859e-06
1.54413e-06
-5.66847e-07
-5.72671e-07
0.000270674
-1.01392e-06
-1.01488e-06
-0.00111771
5.22886e-07
5.23583e-07
0.00111869
-0.00111544
-1.55177e-06
1.01488e-06
4.93091e-07
0.00111627
-5.82301e-07
1.07803e-06
8.6542e-08
6.75373e-07
-6.81089e-07
-1.36066e-06
-6.14212e-09
-0.00111509
-1.54606e-06
1.0146e-06
4.92927e-07
0.00111592
-5.8217e-07
1.07247e-06
8.66551e-08
6.7535e-07
-6.83659e-07
-1.36038e-06
-3.47151e-09
-0.000273328
1.58068e-06
1.54628e-06
-5.60878e-07
-5.66434e-07
0.000271328
-9.92157e-07
-9.92909e-07
-0.0011216
5.13294e-07
5.13971e-07
0.00112256
-0.00111872
-1.5524e-06
9.93342e-07
4.83076e-07
0.00111951
-5.77964e-07
1.09026e-06
9.48302e-08
6.88446e-07
-6.66873e-07
-1.35276e-06
3.89634e-09
-0.00111836
-1.54682e-06
9.92727e-07
4.82482e-07
0.00111916
-5.77855e-07
1.08457e-06
9.49225e-08
6.88317e-07
-6.69579e-07
-1.3526e-06
8.32209e-09
-0.000273943
1.58135e-06
1.54688e-06
-5.53256e-07
-5.58868e-07
0.000271927
-9.70968e-07
-9.71815e-07
-0.0011254
5.03953e-07
5.04637e-07
0.00112633
-0.00112184
-1.55224e-06
9.71743e-07
4.71847e-07
0.0011226
-5.71934e-07
1.10152e-06
1.02018e-07
6.99396e-07
-6.51757e-07
-1.34368e-06
1.66275e-08
-0.00112149
-1.54668e-06
9.71582e-07
4.71257e-07
0.00112224
-5.71816e-07
1.0958e-06
1.02107e-07
6.99284e-07
-6.54416e-07
-1.3435e-06
2.02053e-08
-0.0002745
1.58125e-06
1.5467e-06
-5.4517e-07
-5.508e-07
0.000272468
-9.49084e-07
-9.49869e-07
-0.0011291
4.94188e-07
4.94846e-07
0.00113001
-0.00112481
-1.55053e-06
9.4976e-07
4.59547e-07
0.00112552
-5.63498e-07
1.11213e-06
1.0879e-07
7.09154e-07
-6.35071e-07
-1.33251e-06
2.68209e-08
-0.00112445
-1.545e-06
9.49623e-07
4.59092e-07
0.00112517
-5.63425e-07
1.10638e-06
1.08911e-07
7.09061e-07
-6.37694e-07
-1.33229e-06
3.02219e-08
-0.000274995
1.57968e-06
1.54502e-06
-5.35854e-07
-5.41494e-07
0.000272947
-9.24369e-07
-9.25187e-07
-0.0011327
4.82808e-07
4.83427e-07
0.00113359
-0.0011276
-1.54674e-06
9.24951e-07
4.45393e-07
0.00112827
-5.52481e-07
1.1222e-06
1.15735e-07
7.18466e-07
-6.16755e-07
-1.31908e-06
3.67544e-08
-0.00112725
-1.54121e-06
9.249e-07
4.448e-07
0.00112792
-5.52393e-07
1.11643e-06
1.15872e-07
7.18418e-07
-6.19336e-07
-1.31873e-06
4.00326e-08
-0.000275423
1.57598e-06
1.54123e-06
-5.24669e-07
-5.30314e-07
0.000273361
-8.91293e-07
-8.91998e-07
-0.00113619
4.6691e-07
4.67496e-07
0.00113704
-0.00113021
-1.53929e-06
8.91823e-07
4.2735e-07
0.00113083
-5.37875e-07
1.13284e-06
1.24195e-07
7.29758e-07
-5.95216e-07
-1.3015e-06
4.89994e-08
-0.00112986
-1.53373e-06
8.91657e-07
4.26902e-07
0.00113047
-5.37693e-07
1.12709e-06
1.24433e-07
7.29606e-07
-5.97819e-07
-1.30131e-06
5.22167e-08
-0.00027578
1.56858e-06
1.53376e-06
-5.10006e-07
-5.15652e-07
0.000273703
-8.19844e-07
-8.20278e-07
-0.0011395
4.30251e-07
4.30797e-07
0.00114028
-0.00113258
-1.52162e-06
8.20098e-07
3.89209e-07
0.00113312
-5.13414e-07
1.15143e-06
1.41527e-07
7.53974e-07
-5.62643e-07
-1.27025e-06
7.36066e-08
-0.00113222
-1.51606e-06
8.19917e-07
3.88886e-07
0.00113276
-5.13247e-07
1.14568e-06
1.41743e-07
7.53847e-07
-5.65275e-07
-1.27008e-06
7.67916e-08
-0.000276055
1.55101e-06
1.51612e-06
-4.85071e-07
-4.90684e-07
0.000273964
-6.9143e-07
-6.91719e-07
-0.00114243
3.68014e-07
3.68607e-07
0.00114307
-0.00113456
-1.48804e-06
6.91699e-07
3.2453e-07
0.00113497
-4.78445e-07
1.18301e-06
1.78155e-07
7.9618e-07
-5.13804e-07
-1.22059e-06
1.16878e-07
-0.0011342
-1.4823e-06
6.91397e-07
3.2421e-07
0.00113461
-4.75518e-07
1.17741e-06
1.75332e-07
7.96106e-07
-5.16359e-07
-1.22033e-06
1.19871e-07
-0.000276224
1.51736e-06
1.48249e-06
-4.43766e-07
-4.49311e-07
0.000274117
-4.76322e-07
-4.76499e-07
-0.00114472
2.56103e-07
2.56523e-07
0.00114516
-0.00113595
-1.43501e-06
4.76761e-07
2.274e-07
0.00113619
-4.22354e-07
1.23269e-06
2.28906e-07
8.62529e-07
-4.46413e-07
-1.14741e-06
1.79334e-07
-0.00113559
-1.42948e-06
4.76387e-07
2.27409e-07
0.00113583
-4.19563e-07
1.22692e-06
2.25912e-07
8.62515e-07
-4.48877e-07
-1.14707e-06
1.82334e-07
-0.000276277
1.46441e-06
1.42952e-06
-3.8505e-07
-3.90443e-07
0.000274159
-2.71974e-07
-2.72077e-07
-0.00114617
1.49288e-07
1.49406e-07
0.00114642
-0.00113671
-1.38482e-06
2.71511e-07
1.35397e-07
0.00113682
-3.74839e-07
1.27806e-06
2.71388e-07
9.23498e-07
-3.86859e-07
-1.0791e-06
2.33895e-07
-0.00113635
-1.37917e-06
2.71564e-07
1.35385e-07
0.00113646
-3.71923e-07
1.27242e-06
2.68543e-07
9.23305e-07
-3.89553e-07
-1.07893e-06
2.36649e-07
-0.00027626
1.4144e-06
1.37935e-06
-3.33352e-07
-3.38846e-07
0.000274138
-1.54203e-07
-1.54182e-07
-0.00114696
8.97374e-08
8.97172e-08
0.00114708
-0.00113702
-1.35466e-06
1.54095e-07
8.22712e-08
0.00113705
-3.48076e-07
1.30415e-06
2.94602e-07
9.59306e-07
-3.50627e-07
-1.03823e-06
2.66618e-07
-0.00113666
-1.34901e-06
1.5437e-07
8.23246e-08
0.00113669
-3.45173e-07
1.29848e-06
2.91728e-07
9.5906e-07
-3.53326e-07
-1.03813e-06
2.6933e-07
-0.000276222
1.38437e-06
1.34923e-06
-3.02486e-07
-3.08004e-07
0.000274099
-7.71945e-08
-7.6943e-08
-0.00114736
4.80493e-08
4.80553e-08
0.00114741
-0.00113707
-1.3374e-06
7.71681e-08
4.84118e-08
0.00113707
-3.3353e-07
1.31904e-06
3.07164e-07
9.80816e-07
-3.28603e-07
-1.01382e-06
2.86582e-07
-0.00113671
-1.33173e-06
7.73622e-08
4.83538e-08
0.00113671
-3.30607e-07
1.3134e-06
3.04324e-07
9.80585e-07
-3.31315e-07
-1.01369e-06
2.89294e-07
-0.00027617
1.36707e-06
1.33194e-06
-2.85609e-07
-2.91077e-07
0.000274047
-2.45762e-08
-2.41931e-08
-0.00114752
1.58404e-08
1.59198e-08
0.00114753
-0.00113704
-1.32703e-06
2.43676e-08
2.4522e-08
0.00113703
-3.25377e-07
1.32781e-06
3.14231e-07
9.92276e-07
-3.16768e-07
-1.00067e-06
2.97218e-07
-0.00113668
-1.32136e-06
2.44481e-08
2.43614e-08
0.00113667
-3.22435e-07
1.32217e-06
3.11406e-07
9.92051e-07
-3.1947e-07
-1.00054e-06
2.99941e-07
-0.000276129
1.35665e-06
1.32156e-06
-2.76935e-07
-2.82359e-07
0.00027401
-2.41196e-09
-1.98246e-09
-0.00114756
2.34563e-10
3.44294e-10
0.00114756
-0.001137
-1.32348e-06
1.99226e-09
1.45624e-08
0.001137
-3.22754e-07
1.3306e-06
3.16398e-07
9.96181e-07
-3.12615e-07
-9.9606e-07
3.00876e-07
-0.00113664
-1.31785e-06
1.98132e-09
1.44529e-08
0.00113663
-3.19848e-07
1.32493e-06
3.13533e-07
9.95994e-07
-3.15264e-07
-9.95885e-07
3.03645e-07
-0.000276111
1.35309e-06
1.31803e-06
-2.74518e-07
-2.79903e-07
0.000273995
3.67449e-09
4.24294e-09
-0.00114757
-4.12446e-09
-4.06075e-09
0.00114757
-0.00113699
-1.32272e-06
-4.26844e-09
1.21687e-08
0.00113698
-3.22195e-07
1.33116e-06
3.1686e-07
9.9679e-07
-3.11936e-07
-9.95274e-07
3.0144e-07
-0.00113662
-1.31711e-06
-4.24476e-09
1.21072e-08
0.00113662
-3.1931e-07
1.32548e-06
3.13988e-07
9.96591e-07
-3.14602e-07
-9.95106e-07
3.04199e-07
-0.000276105
1.35234e-06
1.31726e-06
-2.74169e-07
-2.79585e-07
0.000273989
4.92328e-09
5.56483e-09
-0.00114757
-5.27444e-09
-5.22279e-09
0.00114757
-0.00113698
-1.32258e-06
-5.48883e-09
1.16903e-08
0.00113698
-3.22129e-07
1.33125e-06
3.16911e-07
9.96791e-07
-3.11909e-07
-9.95244e-07
3.0146e-07
-0.00113662
-1.31696e-06
-5.38775e-09
1.16241e-08
0.00113662
-3.19241e-07
1.32557e-06
3.14041e-07
9.96567e-07
-3.14594e-07
-9.95087e-07
3.04199e-07
-0.000276103
1.35221e-06
1.31711e-06
-2.74153e-07
-2.79588e-07
0.000273987
5.10342e-09
5.89841e-09
-0.00114757
-5.46641e-09
-5.55944e-10
0.00114756
-0.00113698
-1.32256e-06
-5.79513e-09
1.16809e-08
0.00113698
-3.22164e-07
1.33122e-06
3.16906e-07
9.96772e-07
-3.11935e-07
-9.95258e-07
3.01436e-07
-0.00113662
-1.31691e-06
-5.7261e-09
1.1601e-08
-3.1926e-07
1.32556e-06
3.1407e-07
9.96522e-07
-3.14611e-07
-9.95086e-07
3.04165e-07
-0.000276102
1.35215e-06
1.31707e-06
-2.74166e-07
-2.7958e-07
0.000273987
5.21157e-06
5.22241e-06
0.000260569
-0.000259158
-5.9295e-06
-5.91538e-06
5.06485e-06
0.000261404
-0.000258672
-5.95801e-06
3.3725e-06
-5.21165e-06
5.05982e-06
0.000261437
-0.000258687
-5.96601e-06
3.36766e-06
5.21224e-06
0.000260582
-0.000259161
-5.90091e-06
-5.94409e-06
5.05792e-06
0.000261468
-0.000258702
-5.9635e-06
3.36235e-06
5.06465e-06
-5.2139e-06
0.000261412
-0.000258672
3.37756e-06
-5.9682e-06
1.07133e-05
1.06195e-05
-0.000252643
-0.000256072
-0.000255112
-0.000255113
-6.43351e-06
-4.10908e-06
-6.66535e-06
-6.43386e-06
-4.10998e-06
-6.67088e-06
-5.05288e-06
0.00104217
1.06728e-05
1.06248e-05
-0.000252645
-0.00025607
-0.000255115
-0.000255115
-6.43611e-06
-4.10935e-06
-6.66808e-06
-6.43132e-06
-4.10477e-06
-6.6633e-06
-5.05253e-06
0.00104205
1.07331e-05
1.06854e-05
-0.000252638
-0.000256065
-0.000255112
-0.000255107
-6.43597e-06
-4.11674e-06
-6.66802e-06
-6.43617e-06
-4.10701e-06
-6.66563e-06
-5.06722e-06
-5.05533e-06
0.00104212
1.07284e-05
1.06297e-05
-0.00025264
-0.000256067
-0.000255112
-0.000255113
-6.43086e-06
-4.11168e-06
-6.66302e-06
-6.43629e-06
-4.10982e-06
-6.66835e-06
-0.000258697
-5.95586e-06
3.35731e-06
-5.21147e-06
0.000261399
-0.000258669
3.37255e-06
-5.95794e-06
5.21463e-06
0.000260562
-0.000259146
-5.9032e-06
-5.94137e-06
-0.000258682
3.36485e-06
-5.953e-06
-5.22239e-06
0.000261465
-0.000258697
3.35984e-06
-5.96097e-06
-0.000259156
-5.92937e-06
-5.91541e-06
5.63354e-06
5.6706e-06
-4.87238e-06
-4.86615e-06
0.000259004
-8.22823e-07
-7.86688e-07
0.000261567
-0.000259437
-2.64182e-07
-2.56727e-07
7.13383e-06
0.00105879
-4.56694e-06
-1.55389e-06
-2.19189e-06
-2.55297e-06
-6.66467e-06
-7.06336e-06
-3.17664e-06
-0.000263251
-0.000259683
-0.000262786
-5.64398e-06
1.45802e-05
7.07321e-06
0.00105915
-4.58612e-06
-1.54629e-06
-2.195e-06
-2.56377e-06
-6.6962e-06
-7.08018e-06
-3.19233e-06
-0.000263325
-0.000259714
-0.000262827
0.00106192
1.95931e-06
-0.00106087
9.12839e-07
-1.71892e-06
-1.45382e-07
-6.95877e-07
-1.47665e-06
-2.62905e-07
-8.13938e-07
3.72986e-07
8.30939e-07
0.00106234
1.95979e-06
-0.00106128
9.07809e-07
-1.72935e-06
-1.3811e-07
-7.01431e-07
-1.48243e-06
-2.63013e-07
-8.14228e-07
3.78426e-07
-4.87052e-06
-4.863e-06
0.000259014
-7.89403e-07
0.000261593
-0.000259457
-2.61476e-07
-2.53849e-07
6.85519e-06
0.00105962
-4.59119e-06
-1.61286e-06
-2.20797e-06
-2.56215e-06
-6.67874e-06
-7.07562e-06
-3.18762e-06
-0.000263346
-0.000259741
-0.00026284
-5.64366e-06
1.46146e-05
7.16743e-06
0.00105893
-4.58591e-06
-1.55633e-06
-2.20002e-06
-2.56584e-06
-6.69546e-06
-7.07919e-06
-3.19199e-06
-0.000259683
-0.000263302
-0.000262799
0.00106293
1.96695e-06
-0.00106187
9.01463e-07
-1.68891e-06
-1.47825e-07
-6.96169e-07
-1.47962e-06
-2.62944e-07
-8.11583e-07
3.75461e-07
8.20222e-07
0.00106203
1.96997e-06
-0.001061
9.23055e-07
-1.71905e-06
-1.42999e-07
-6.96098e-07
-1.47943e-06
-2.60459e-07
-8.16649e-07
3.72959e-07
1.46115e-05
7.15476e-06
0.00105874
-4.56684e-06
-1.55376e-06
-2.18924e-06
-2.55304e-06
-6.66469e-06
-3.17671e-06
-7.06113e-06
-0.000259678
-0.000263246
-0.000262781
1.96625e-06
-0.00106162
9.06751e-07
-1.6888e-06
-1.45221e-07
-6.93224e-07
-1.47689e-06
-2.65275e-07
3.70172e-07
-8.11325e-07
8.20185e-07
0.00106181
1.96967e-06
-0.00106079
9.23109e-07
-1.71897e-06
-1.42901e-07
-6.95854e-07
-1.47929e-06
-2.62861e-07
-8.13851e-07
3.75564e-07
-4.87524e-06
-4.86284e-06
0.000258993
-7.81214e-07
0.000261544
-0.000259419
-2.64559e-07
-2.59167e-07
1.4513e-05
6.87375e-06
0.00105957
-4.59137e-06
-1.61287e-06
-2.20804e-06
-2.56197e-06
-6.67857e-06
-3.18752e-06
-7.07288e-06
-0.000259731
-0.000263343
-0.000262835
1.97133e-06
-0.00106132
9.22127e-07
-1.68634e-06
-1.47684e-07
-6.95902e-07
-1.47375e-06
-2.60389e-07
3.70222e-07
-8.13891e-07
7.81307e-07
0.00106284
1.9719e-06
-0.00106179
9.11786e-07
-1.68387e-06
-1.47823e-07
-6.93558e-07
-1.47687e-06
-2.62791e-07
-8.14035e-07
3.70363e-07
-0.000259434
-2.61693e-07
-2.59384e-07
1.64222e-06
1.60696e-06
-6.87948e-07
-6.96304e-07
0.000259702
-9.0084e-07
-8.61818e-07
0.000262806
-0.000260642
-2.04458e-07
-1.96804e-07
7.69383e-07
0.0010632
-6.70388e-07
8.54868e-07
-1.28926e-07
3.94856e-07
-8.00077e-07
-1.42062e-06
-2.58965e-07
-1.64754e-06
1.6225e-06
7.64167e-07
0.00106362
-6.73305e-07
8.62958e-07
-1.28947e-07
4.00304e-07
-8.03032e-07
-1.4264e-06
-2.56682e-07
0.00106714
1.39089e-06
-0.00106581
6.76345e-07
-1.60341e-06
-8.96612e-08
-6.46324e-07
-1.38613e-06
-2.23151e-07
-7.88639e-07
4.40302e-07
9.06224e-07
0.00106758
1.39123e-06
-0.00106624
6.71244e-07
-1.60876e-06
-8.9782e-08
-6.46585e-07
-1.38919e-06
-2.23245e-07
-7.88978e-07
4.43122e-07
-6.88387e-07
-6.95676e-07
0.00025972
-8.67089e-07
0.000262832
-0.000260655
-2.04489e-07
-1.99333e-07
7.62822e-07
0.00106422
-6.68057e-07
8.1868e-07
-1.31336e-07
3.97367e-07
-8.03076e-07
-1.42373e-06
-2.56623e-07
-1.64227e-06
1.62777e-06
7.69441e-07
0.0010633
-6.73283e-07
8.54917e-07
-1.28978e-07
3.94886e-07
-8.02769e-07
-1.4208e-06
-2.56525e-07
0.00106817
1.39243e-06
-0.00106685
6.75214e-07
-1.56541e-06
-9.44081e-08
-6.41345e-07
-1.38383e-06
-2.20769e-07
-7.88967e-07
4.42999e-07
8.95544e-07
0.00106726
1.39098e-06
-0.00106592
6.76406e-07
-1.60085e-06
-9.21533e-08
-6.46516e-07
-1.38627e-06
-2.23101e-07
-7.88686e-07
4.43128e-07
1.62235e-06
7.69457e-07
0.0010631
-6.73063e-07
8.52216e-07
-1.31314e-07
3.94799e-07
-8.027e-07
-2.56569e-07
-1.42071e-06
1.39196e-06
-0.00106658
6.80605e-07
-1.57324e-06
-9.6741e-08
-6.41189e-07
-1.38376e-06
-2.208e-07
4.42848e-07
-7.88789e-07
8.98133e-07
0.00106705
1.38568e-06
-0.00106571
6.76446e-07
-1.60079e-06
-9.20471e-08
-6.4635e-07
-1.38621e-06
-2.23178e-07
-7.88631e-07
4.40318e-07
-6.91124e-07
-6.93187e-07
0.000259682
-8.58983e-07
0.00026278
-0.000260621
-2.04697e-07
-1.99339e-07
1.62305e-06
7.57787e-07
0.00106414
-6.68097e-07
8.1325e-07
-1.3627e-07
3.92132e-07
-8.00284e-07
-2.61348e-07
-1.41823e-06
1.39194e-06
-0.00106626
6.75537e-07
-1.56266e-06
-9.67334e-08
-6.41129e-07
-1.37813e-06
-2.23149e-07
4.34689e-07
-7.88701e-07
8.61666e-07
0.00106808
1.39229e-06
-0.00106675
6.75304e-07
-1.56287e-06
-9.68702e-08
-6.41421e-07
-1.38643e-06
-2.23159e-07
-7.9158e-07
4.40281e-07
-0.000260629
-2.04573e-07
-1.99484e-07
1.60176e-06
1.56894e-06
-6.57638e-07
-6.65944e-07
0.000260959
-9.24193e-07
-8.87706e-07
0.000264088
-0.000261911
-1.85015e-07
-1.799e-07
6.63187e-07
0.00106849
-6.46625e-07
9.06745e-07
-8.49959e-08
4.44094e-07
-7.89551e-07
-1.38426e-06
-2.22064e-07
-1.60716e-06
1.36606e-06
6.73834e-07
0.00106891
-6.46867e-07
9.12199e-07
-8.50597e-08
4.49688e-07
-7.92519e-07
-1.38995e-06
-2.17326e-07
0.0010725
1.35652e-06
-0.00107118
6.51955e-07
-1.60375e-06
-7.19402e-08
-6.42047e-07
-1.39481e-06
-2.07502e-07
-7.93009e-07
4.55544e-07
9.29717e-07
0.00107292
1.35694e-06
-0.0010716
6.52204e-07
-1.60909e-06
-6.96263e-08
-6.44936e-07
-1.40317e-06
-2.02725e-07
-7.9861e-07
4.63923e-07
-6.60652e-07
-6.62901e-07
0.000260979
-8.90404e-07
0.000264117
-0.000261937
-1.82355e-07
-1.77107e-07
6.62131e-07
0.00106953
-6.44337e-07
8.70369e-07
-8.9723e-08
4.46763e-07
-7.92475e-07
-1.38987e-06
-2.17275e-07
-1.59917e-06
1.36591e-06
6.68564e-07
0.0010686
-6.46831e-07
9.04143e-07
-8.50501e-08
4.46909e-07
-7.92196e-07
-1.38702e-06
-2.17158e-07
0.00107353
1.35802e-06
-0.0010722
6.50943e-07
-1.56809e-06
-7.42614e-08
-6.39668e-07
-1.39775e-06
-2.02692e-07
-7.98605e-07
4.58263e-07
9.24282e-07
0.0010726
1.35679e-06
-0.00107128
6.52181e-07
-1.60377e-06
-6.96049e-08
-6.44887e-07
-1.39748e-06
-2.02566e-07
-7.98286e-07
4.58371e-07
1.37083e-06
6.63312e-07
0.0010684
-6.43967e-07
9.01404e-07
-8.97318e-08
4.46771e-07
-7.9217e-07
-2.19669e-07
-1.38699e-06
1.3576e-06
-0.00107194
6.51115e-07
-1.57067e-06
-7.4158e-08
-6.39487e-07
-1.39505e-06
-2.05145e-07
4.55417e-07
-7.95839e-07
9.18811e-07
0.0010724
1.3565e-06
-0.00107108
6.52096e-07
-1.59847e-06
-7.4262e-08
-6.39323e-07
-1.39487e-06
-2.05098e-07
-7.95628e-07
4.55532e-07
-6.60747e-07
-6.65447e-07
0.000260943
-8.84933e-07
0.000264067
-0.000261896
-1.85077e-07
-1.77169e-07
1.36702e-06
6.67444e-07
0.00106943
-6.39041e-07
8.62271e-07
-9.45138e-08
4.44121e-07
-7.898e-07
-2.19665e-07
-1.38459e-06
1.35745e-06
-0.0010716
6.51191e-07
-1.56534e-06
-7.64869e-08
-6.36759e-07
-1.39474e-06
-2.02677e-07
4.55422e-07
-7.98342e-07
8.84896e-07
0.00107344
1.35792e-06
-0.00107212
6.51025e-07
-1.56556e-06
-7.66425e-08
-6.37065e-07
-1.39248e-06
-2.05096e-07
-7.95902e-07
4.5287e-07
-0.000261909
-1.82553e-07
-1.77318e-07
1.60281e-06
1.56711e-06
-6.4915e-07
-6.54849e-07
0.000262222
-9.51866e-07
-9.15229e-07
0.000265307
-0.000263129
-1.57861e-07
-1.52666e-07
6.45307e-07
0.00107381
-6.39526e-07
9.30893e-07
-6.59761e-08
4.60763e-07
-7.9205e-07
-1.39621e-06
-2.0094e-07
-1.60816e-06
1.34785e-06
6.4555e-07
0.00107424
-6.42413e-07
9.36425e-07
-6.36698e-08
4.69158e-07
-7.97647e-07
-1.40458e-06
-1.96155e-07
0.00107767
1.31242e-06
-0.0010764
6.23278e-07
-1.59792e-06
-4.79294e-08
-6.30224e-07
-1.39715e-06
-1.79349e-07
-7.8537e-07
4.7871e-07
9.57416e-07
0.0010781
1.31286e-06
-0.00107682
6.23562e-07
-1.6033e-06
-4.56646e-08
-6.33115e-07
-1.40553e-06
-1.7456e-07
-7.90977e-07
4.87142e-07
-6.52231e-07
-6.56959e-07
0.000262248
-9.17928e-07
0.000265335
-0.000263155
-1.55184e-07
-1.49877e-07
6.4433e-07
0.00107484
-6.3714e-07
8.94364e-07
-6.82855e-08
4.63492e-07
-7.97648e-07
-1.39915e-06
-1.96127e-07
-1.60283e-06
1.34768e-06
6.45528e-07
0.00107392
-6.42363e-07
9.30986e-07
-6.36472e-08
4.63603e-07
-7.97327e-07
-1.39887e-06
-1.96001e-07
0.00107871
1.31374e-06
-0.00107743
6.2228e-07
-1.56207e-06
-5.01854e-08
-6.27812e-07
-1.40007e-06
-1.74524e-07
-7.90976e-07
4.81475e-07
9.51966e-07
0.00107778
1.31265e-06
-0.00107651
6.23492e-07
-1.59793e-06
-4.56364e-08
-6.33055e-07
-1.3998e-06
-1.74402e-07
-7.90656e-07
4.8158e-07
1.34739e-06
6.4544e-07
0.00107372
-6.36795e-07
9.25499e-07
-6.82877e-08
4.60755e-07
-7.94666e-07
-1.98533e-07
-1.39627e-06
1.31338e-06
-0.00107717
6.22446e-07
-1.56468e-06
-5.00981e-08
-6.27644e-07
-1.39736e-06
-1.76991e-07
4.7861e-07
-7.88206e-07
9.46441e-07
0.00107757
1.31237e-06
-0.0010763
6.2338e-07
-1.59263e-06
-5.02001e-08
-6.27478e-07
-1.3972e-06
-1.76943e-07
-7.87993e-07
4.78709e-07
-6.49645e-07
-6.5694e-07
0.000262207
-9.12459e-07
0.000265286
-0.000263114
-1.57881e-07
-1.49935e-07
1.34879e-06
6.44377e-07
0.00107476
-6.34528e-07
8.91557e-07
-7.06502e-08
4.58093e-07
-7.94945e-07
-1.98529e-07
-1.39388e-06
1.31316e-06
-0.00107683
6.22467e-07
-1.55929e-06
-5.23665e-08
-6.24888e-07
-1.39707e-06
-1.74521e-07
4.78602e-07
-7.90721e-07
9.1241e-07
0.00107862
1.31362e-06
-0.00107735
6.22331e-07
-1.55953e-06
-5.25081e-08
-6.25183e-07
-1.39479e-06
-1.76931e-07
-7.88272e-07
4.76044e-07
-0.000263127
-1.55388e-07
-1.50085e-07
1.5959e-06
1.56001e-06
-6.33051e-07
-6.38753e-07
0.000263423
-9.78487e-07
-9.41708e-07
0.000266452
-0.000264276
-1.30696e-07
-1.25414e-07
6.15977e-07
0.00107893
-6.2686e-07
9.58779e-07
-4.21813e-08
4.85123e-07
-7.82256e-07
-1.39657e-06
-1.71933e-07
-1.60128e-06
1.30024e-06
6.16281e-07
0.00107935
-6.29759e-07
9.64331e-07
-3.99389e-08
4.93553e-07
-7.87883e-07
-1.40496e-06
-1.67157e-07
0.0010826
1.26226e-06
-0.00108139
5.95857e-07
-1.58992e-06
-2.6463e-08
-6.17351e-07
-1.39384e-06
-1.50207e-07
-7.72118e-07
5.04399e-07
9.8406e-07
0.00108303
1.26277e-06
-0.00108182
5.96202e-07
-1.59532e-06
-2.42942e-08
-6.20246e-07
-1.40226e-06
-1.45406e-07
-7.77739e-07
5.12883e-07
-6.36163e-07
-6.40882e-07
0.000263449
-9.44403e-07
0.000266481
-0.000264302
-1.27999e-07
-1.22633e-07
6.15037e-07
0.00107997
-6.24448e-07
9.22098e-07
-4.44243e-08
4.87896e-07
-7.87868e-07
-1.39949e-06
-1.67108e-07
-1.5959e-06
1.29999e-06
6.16199e-07
0.00107903
-6.29692e-07
9.58878e-07
-3.99077e-08
4.88002e-07
-7.87546e-07
-1.39921e-06
-1.66983e-07
0.00108364
1.26341e-06
-0.00108243
5.94898e-07
-1.5539e-06
-2.8627e-08
-6.14915e-07
-1.39675e-06
-1.4538e-07
-7.77734e-07
5.07199e-07
9.78592e-07
0.00108271
1.26251e-06
-0.0010815
5.96106e-07
-1.58992e-06
-2.42629e-08
-6.20178e-07
-1.39648e-06
-1.4525e-07
-7.77409e-07
5.07307e-07
1.2997e-06
6.16089e-07
0.00107883
-6.24115e-07
9.53337e-07
-4.44407e-08
4.85122e-07
-7.84883e-07
-1.69529e-07
-1.39662e-06
1.2631e-06
-0.00108217
5.95094e-07
-1.55653e-06
-2.85628e-08
-6.14773e-07
-1.39403e-06
-1.47853e-07
5.04313e-07
-7.74959e-07
9.73012e-07
0.0010825
1.26219e-06
-0.00108129
5.95942e-07
-1.58463e-06
-2.86553e-08
-6.14592e-07
-1.39389e-06
-1.47813e-07
-7.74753e-07
5.044e-07
-6.33522e-07
-6.40856e-07
0.000263407
-9.3893e-07
0.000266431
-0.00026426
-1.30679e-07
-1.22696e-07
1.30092e-06
6.15046e-07
0.00107988
-6.21811e-07
9.19279e-07
-4.67267e-08
4.82456e-07
-7.85162e-07
-1.69514e-07
-1.39421e-06
1.26281e-06
-0.00108183
5.95052e-07
-1.5511e-06
-3.07359e-08
-6.11981e-07
-1.39376e-06
-1.45395e-07
5.04292e-07
-7.77491e-07
9.38863e-07
0.00108355
1.26327e-06
-0.00108234
5.94937e-07
-1.55135e-06
-3.08689e-08
-6.12271e-07
-1.39147e-06
-1.47792e-07
-7.75029e-07
5.01729e-07
-0.000264273
-1.28226e-07
-1.22848e-07
1.58807e-06
1.55201e-06
-6.16568e-07
-6.22273e-07
0.000264551
-1.00247e-06
-9.65547e-07
0.000267523
-0.000265349
-1.05925e-07
-1.00568e-07
5.8975e-07
0.0010838
-6.14456e-07
9.84734e-07
-2.17254e-08
5.10851e-07
-7.68606e-07
-1.39274e-06
-1.43161e-07
-1.59347e-06
1.25064e-06
5.90078e-07
0.00108422
-6.17353e-07
9.90312e-07
-1.95954e-08
5.19345e-07
-7.74241e-07
-1.40114e-06
-1.38378e-07
0.00108728
1.21556e-06
-0.00108614
5.73373e-07
-1.58315e-06
-9.1925e-09
-6.06824e-07
-1.38907e-06
-1.22898e-07
-7.58145e-07
5.30156e-07
1.00808e-06
0.00108771
1.216e-06
-0.00108656
5.73585e-07
-1.58854e-06
-7.2505e-09
-6.0968e-07
-1.39745e-06
-1.18062e-07
-7.63728e-07
5.38718e-07
-6.19692e-07
-6.24421e-07
0.000264577
-9.68278e-07
0.000267552
-0.000265375
-1.03143e-07
-9.77842e-08
5.88856e-07
0.00108484
-6.12023e-07
9.47909e-07
-2.38644e-08
5.13654e-07
-7.74228e-07
-1.39565e-06
-1.38341e-07
-1.58807e-06
1.25038e-06
5.90014e-07
0.0010839
-6.17283e-07
9.84839e-07
-1.95635e-08
5.13769e-07
-7.73899e-07
-1.39537e-06
-1.38204e-07
0.00108833
1.21656e-06
-0.00108718
5.72317e-07
-1.54694e-06
-1.11502e-08
-6.04351e-07
-1.39198e-06
-1.18106e-07
-7.63789e-07
5.32955e-07
1.00258e-06
0.00108739
1.21584e-06
-0.00108624
5.73572e-07
-1.58314e-06
-7.23174e-09
-6.09641e-07
-1.39169e-06
-1.17948e-07
-7.6345e-07
5.33094e-07
1.25005e-06
5.89867e-07
0.0010837
-6.11703e-07
9.79235e-07
-2.38956e-08
5.10849e-07
-7.71247e-07
-1.40775e-07
-1.39279e-06
1.21624e-06
-0.00108691
5.72442e-07
-1.54954e-06
-1.10767e-08
-6.0418e-07
-1.38926e-06
-1.20577e-07
5.30047e-07
-7.61003e-07
9.9693e-07
0.00108718
1.21545e-06
-0.00108604
5.7338e-07
-1.57785e-06
-1.11921e-08
-6.04055e-07
-1.38912e-06
-1.20535e-07
-7.60805e-07
5.3014e-07
-6.17008e-07
-6.24407e-07
0.000264535
-9.62741e-07
0.000267502
-0.000265333
-1.05886e-07
-9.78654e-08
1.25109e-06
5.88843e-07
0.00108475
-6.09372e-07
9.45062e-07
-2.60724e-08
5.08174e-07
-7.71524e-07
-1.40755e-07
-1.39037e-06
1.21592e-06
-0.00108657
5.72422e-07
-1.54411e-06
-1.31028e-08
-6.01411e-07
-1.389e-06
-1.18148e-07
5.3001e-07
-7.63564e-07
9.62668e-07
0.00108824
1.21638e-06
-0.00108709
5.72327e-07
-1.54441e-06
-1.3216e-08
-6.01702e-07
-1.38671e-06
-1.20523e-07
-7.61089e-07
5.27444e-07
-0.000265346
-1.03472e-07
-9.80282e-08
1.58175e-06
1.54549e-06
-6.02116e-07
-6.07903e-07
0.000265606
-1.02575e-06
-9.86085e-07
0.000268529
-0.000266353
-8.48119e-08
-7.90741e-08
5.68494e-07
0.00108841
-6.04649e-07
1.01073e-06
-3.44766e-09
5.36463e-07
-7.54815e-07
-1.38784e-06
-1.1653e-07
-1.58716e-06
1.20516e-06
5.68546e-07
0.00108885
-6.07542e-07
1.01362e-06
-3.4419e-09
5.45021e-07
-7.6041e-07
-1.39623e-06
-1.1171e-07
0.00109173
1.17434e-06
-0.00109064
5.54809e-07
-1.58151e-06
1.25053e-08
-6.02758e-07
-1.38476e-06
-9.8884e-08
-7.45776e-07
5.5458e-07
1.02862e-06
0.00109216
1.17459e-06
-0.00109107
5.54858e-07
-1.58427e-06
1.24945e-08
-6.02918e-07
-1.39047e-06
-9.40989e-08
-7.51391e-07
5.60387e-07
-6.05206e-07
-6.10048e-07
0.000265632
-9.88787e-07
0.000268555
-0.000266379
-8.21131e-08
-7.63133e-08
5.67521e-07
0.00108946