/*--------------------------------*- C++ -*----------------------------------*\
| =========                 |                                                 |
| \\      /  F ield         | OpenFOAM: The Open Source CFD Toolbox           |
|  \\    /   O peration     | Version:  v1912                                 |
|   \\  /    A nd           | Website:  www.openfoam.com                      |
|    \\/     M anipulation  |                                                 |
\*---------------------------------------------------------------------------*/
FoamFile
{
    version     2.0;
    format      ascii;
    class       volVectorField;
    location    "100";
    object      U;
}
// * * * * * * * * * * * * * * * * * * * * * * * * * * * * * * * * * * * * * //

dimensions      [0 1 -1 0 0 0 0];


internalField   nonuniform List<vector> 
57100
(
(0.000106003 0.00010594 0.100294)
(-0.000188856 0.000120347 0.10038)
(0.000120435 -0.000188859 0.10038)
(-0.000240598 -0.000240616 0.100392)
(9.56978e-05 9.56388e-05 0.100865)
(-0.000152068 9.20438e-05 0.100944)
(9.20524e-05 -0.00015206 0.100944)
(-0.000192856 -0.000192925 0.100967)
(9.75951e-05 9.75725e-05 0.101371)
(-0.000153433 9.04121e-05 0.101449)
(9.03982e-05 -0.000153439 0.101449)
(-0.000197362 -0.000197425 0.101471)
(9.538e-05 9.53603e-05 0.101893)
(-0.000150377 8.73538e-05 0.101958)
(8.73678e-05 -0.000150378 0.101958)
(-0.000195116 -0.000195168 0.101965)
(9.2092e-05 9.20814e-05 0.102399)
(-0.000144307 8.29055e-05 0.102446)
(8.29222e-05 -0.000144309 0.102446)
(-0.000190164 -0.00019022 0.102432)
(8.88188e-05 8.88191e-05 0.102886)
(-0.000138294 7.89121e-05 0.102912)
(7.89329e-05 -0.000138298 0.102912)
(-0.000184981 -0.000185039 0.102871)
(8.5863e-05 8.58715e-05 0.103354)
(-0.000132903 7.56106e-05 0.103354)
(7.56485e-05 -0.000132913 0.103354)
(-0.000180538 -0.000180612 0.103281)
(8.33663e-05 8.33108e-05 0.103804)
(-0.000128422 7.31883e-05 0.103774)
(7.31891e-05 -0.000128415 0.103774)
(-0.000177208 -0.000177285 0.103664)
(8.11518e-05 8.10923e-05 0.104238)
(-0.000124698 7.14997e-05 0.104175)
(7.14914e-05 -0.000124689 0.104175)
(-0.000175518 -0.000175573 0.104023)
(7.92923e-05 7.92436e-05 0.104659)
(-0.000121487 7.01103e-05 0.104558)
(7.01046e-05 -0.000121476 0.104558)
(-0.000174507 -0.000174574 0.104359)
(7.76824e-05 7.76431e-05 0.105067)
(-0.000118679 6.89037e-05 0.104925)
(6.89121e-05 -0.00011867 0.104925)
(-0.000173956 -0.000174035 0.104673)
(7.62087e-05 7.61724e-05 0.105464)
(-0.000116166 6.77683e-05 0.105277)
(6.77804e-05 -0.000116151 0.105277)
(-0.000173666 -0.000173767 0.104967)
(7.47846e-05 7.47586e-05 0.105852)
(-0.000113791 6.65484e-05 0.105615)
(6.65811e-05 -0.000113768 0.105615)
(-0.000173537 -0.000173694 0.10524)
(7.34119e-05 7.33829e-05 0.10623)
(-0.000111389 6.54229e-05 0.105939)
(6.54011e-05 -0.000111376 0.105939)
(-0.000173192 -0.000173207 0.105492)
(7.1974e-05 7.19584e-05 0.106598)
(-0.000109135 6.44274e-05 0.106248)
(6.44029e-05 -0.000109166 0.106248)
(-0.000172252 -0.000172268 0.105721)
(7.04636e-05 7.04578e-05 0.106958)
(-0.00010713 6.344e-05 0.106543)
(6.34159e-05 -0.000107192 0.106543)
(-0.000171054 -0.000171075 0.105928)
(6.88776e-05 6.88739e-05 0.107308)
(-0.000104987 6.23145e-05 0.106823)
(6.22899e-05 -0.000105032 0.106822)
(-0.000169274 -0.000169301 0.10611)
(6.7117e-05 6.71183e-05 0.107649)
(-0.000102414 6.09868e-05 0.107086)
(6.09673e-05 -0.000102453 0.107086)
(-0.000166601 -0.000166637 0.106267)
(6.4882e-05 6.48811e-05 0.107979)
(-9.91522e-05 5.92437e-05 0.107331)
(5.92134e-05 -9.91585e-05 0.107331)
(-0.000162322 -0.00016236 0.106397)
(5.98159e-05 5.98239e-05 0.10829)
(-9.18877e-05 5.45407e-05 0.107553)
(5.45516e-05 -9.19151e-05 0.107553)
(-0.0001541 -0.000154139 0.106496)
(5.06935e-05 5.07064e-05 0.108564)
(-7.8956e-05 4.64253e-05 0.107735)
(4.63723e-05 -7.89324e-05 0.107735)
(-0.000139418 -0.00013943 0.106554)
(3.44937e-05 3.45046e-05 0.108772)
(-5.56795e-05 3.30856e-05 0.107859)
(3.30776e-05 -5.56344e-05 0.107859)
(-0.000117406 -0.00011739 0.10657)
(1.91759e-05 1.91722e-05 0.1089)
(-3.2756e-05 2.02517e-05 0.107924)
(2.02428e-05 -3.27693e-05 0.107924)
(-9.68804e-05 -9.69084e-05 0.106561)
(1.06428e-05 1.06356e-05 0.108968)
(-1.91411e-05 1.27458e-05 0.10795)
(1.27481e-05 -1.91779e-05 0.107949)
(-8.44992e-05 -8.45541e-05 0.106545)
(4.83347e-06 4.83788e-06 0.109003)
(-1.03319e-05 8.07378e-06 0.107953)
(8.06057e-06 -1.03569e-05 0.107952)
(-7.76611e-05 -7.77056e-05 0.106525)
(4.62309e-07 4.75805e-07 0.109016)
(-4.56006e-06 4.77345e-06 0.107949)
(4.7547e-06 -4.57493e-06 0.107949)
(-7.38573e-05 -7.38845e-05 0.10651)
(-1.58952e-06 -1.56974e-06 0.109019)
(-2.1134e-06 3.41232e-06 0.107946)
(3.40085e-06 -2.11558e-06 0.107945)
(-7.27004e-05 -7.27118e-05 0.106503)
(-2.20836e-06 -2.19302e-06 0.10902)
(-1.65592e-06 3.06926e-06 0.107945)
(3.06161e-06 -1.66166e-06 0.107944)
(-7.2484e-05 -7.25096e-05 0.106501)
(-2.34696e-06 -2.33338e-06 0.10902)
(-1.59327e-06 2.99485e-06 0.107944)
(2.98967e-06 -1.60649e-06 0.107944)
(-7.24505e-05 -7.24813e-05 0.1065)
(-2.37424e-06 -2.35377e-06 0.10902)
(-1.57702e-06 2.98728e-06 0.107944)
(2.97789e-06 -1.5897e-06 0.107943)
(-7.24412e-05 -7.24638e-05 0.1065)
(0.000133863 0.000133849 0.100279)
(0.000122673 0.000150719 0.100225)
(-0.000122667 0.000150696 0.100225)
(-0.000133861 0.000133817 0.100279)
(0.000150741 0.000122626 0.100225)
(0.000150716 -0.00012265 0.100225)
(8.89298e-05 8.8874e-05 0.100148)
(-8.89182e-05 8.88697e-05 0.100148)
(8.89015e-05 -8.89282e-05 0.100148)
(-8.8897e-05 -8.89224e-05 0.100148)
(-0.000150738 0.000122624 0.100225)
(-0.000150729 -0.000122639 0.100225)
(0.000133858 -0.000133883 0.100279)
(0.000122629 -0.00015075 0.100225)
(-0.000122625 -0.000150725 0.100225)
(-0.000133871 -0.000133849 0.100279)
(0.000240643 0.000240611 0.100392)
(0.000100805 0.000100707 0.100893)
(0.00012048 0.00018875 0.10038)
(-0.000120435 0.000188787 0.10038)
(8.26924e-05 0.000136362 0.100825)
(-8.26575e-05 0.000136376 0.100825)
(-0.000240646 0.000240568 0.100392)
(-0.000100778 0.000100655 0.100893)
(0.000188893 0.00012038 0.10038)
(0.000188838 -0.000120454 0.10038)
(0.000136376 8.26512e-05 0.100826)
(0.000136381 -8.26773e-05 0.100826)
(-0.000188819 -0.000120445 0.10038)
(-0.000136334 8.26589e-05 0.100825)
(-0.000136353 -8.26787e-05 0.100826)
(0.000240573 -0.000240666 0.100392)
(0.000100761 -0.000100801 0.100893)
(-0.000120415 -0.00018888 0.10038)
(8.26616e-05 -0.000136329 0.100826)
(-8.26448e-05 -0.000136348 0.100826)
(-0.000100761 -0.000100805 0.100893)
(0.000192929 0.000192803 0.100967)
(9.96983e-05 9.96307e-05 0.101396)
(9.20548e-05 0.0001521 0.100944)
(-9.203e-05 0.000152106 0.100944)
(9.12736e-05 0.000154027 0.10132)
(-9.1274e-05 0.000154036 0.10132)
(-0.000192904 0.000192745 0.100967)
(-9.96946e-05 9.9623e-05 0.101396)
(0.000152107 9.20253e-05 0.100944)
(0.000152102 -9.20392e-05 0.100944)
(0.000154007 9.1274e-05 0.10132)
(0.000154029 -9.12771e-05 0.101321)
(-0.000152091 -9.20458e-05 0.100944)
(-0.000153997 9.1298e-05 0.10132)
(-0.000154014 -9.12729e-05 0.10132)
(0.000192847 -0.000192934 0.100967)
(9.96719e-05 -9.96969e-05 0.101396)
(-9.20332e-05 -0.000152087 0.100944)
(9.1285e-05 -0.000153994 0.101321)
(-9.12901e-05 -0.000154015 0.101321)
(-9.969e-05 -9.97135e-05 0.101396)
(0.000197415 0.000197305 0.101471)
(9.13333e-05 9.12671e-05 0.101893)
(9.03779e-05 0.000153477 0.101449)
(-9.03836e-05 0.00015348 0.101449)
(8.83397e-05 0.00015164 0.101832)
(-8.83193e-05 0.000151631 0.101832)
(-0.00019741 0.000197286 0.101471)
(-9.13108e-05 9.1258e-05 0.101893)
(0.000153448 9.03925e-05 0.101449)
(0.000153475 -9.03837e-05 0.101449)
(0.000151593 8.8344e-05 0.101832)
(0.000151614 -8.83164e-05 0.101832)
(-0.000153463 -9.03876e-05 0.101449)
(-0.000151583 8.83421e-05 0.101832)
(-0.000151621 -8.83334e-05 0.101832)
(0.000197343 -0.000197423 0.101471)
(9.12755e-05 -9.13364e-05 0.101893)
(-9.041e-05 -0.000153467 0.101449)
(8.83518e-05 -0.000151583 0.101832)
(-8.83454e-05 -0.000151598 0.101832)
(-9.13587e-05 -9.13735e-05 0.101893)
(0.000195135 0.000195032 0.101965)
(8.11878e-05 8.11298e-05 0.102366)
(8.73515e-05 0.000150436 0.101958)
(-8.73296e-05 0.000150426 0.101958)
(8.40145e-05 0.000145953 0.102326)
(-8.39912e-05 0.000145945 0.102326)
(-0.000195117 0.00019501 0.101965)
(-8.11668e-05 8.11261e-05 0.102366)
(0.00015039 8.73589e-05 0.101958)
(0.000150408 -8.73257e-05 0.101958)
(0.000145901 8.40171e-05 0.102326)
(0.000145922 -8.3981e-05 0.102326)
(-0.000150417 -8.73461e-05 0.101958)
(-0.000145891 8.40141e-05 0.102326)
(-0.000145936 -8.40045e-05 0.102326)
(0.000195036 -0.00019515 0.101965)
(8.11253e-05 -8.11913e-05 0.102366)
(-8.73556e-05 -0.000150388 0.101958)
(8.40317e-05 -0.000145891 0.102326)
(-8.40131e-05 -0.000145896 0.102326)
(-8.1223e-05 -8.12405e-05 0.102366)
(0.000190177 0.00019008 0.102432)
(7.13278e-05 7.12761e-05 0.102812)
(8.28984e-05 0.000144369 0.102446)
(-8.28775e-05 0.000144365 0.102446)
(7.9835e-05 0.000139811 0.102798)
(-7.98108e-05 0.000139811 0.102798)
(-0.00019016 0.000190066 0.102432)
(-7.13088e-05 7.12784e-05 0.102812)
(0.000144318 8.29089e-05 0.102446)
(0.000144337 -8.2865e-05 0.102446)
(0.000139755 7.98405e-05 0.102798)
(0.000139776 -7.97938e-05 0.102798)
(-0.000144354 -8.28935e-05 0.102446)
(-0.000139747 7.98402e-05 0.102798)
(-0.000139798 -7.98242e-05 0.102798)
(0.000190073 -0.000190191 0.102432)
(7.12638e-05 -7.13357e-05 0.102812)
(-8.29004e-05 -0.00014431 0.102446)
(7.98614e-05 -0.000139748 0.102798)
(-7.98371e-05 -0.000139747 0.102798)
(-7.13792e-05 -7.13976e-05 0.102812)
(0.000184985 0.000184891 0.102871)
(6.23926e-05 6.23466e-05 0.103229)
(7.88968e-05 0.000138358 0.102912)
(-7.88727e-05 0.00013836 0.102912)
(7.63638e-05 0.000134238 0.103246)
(-7.63206e-05 0.000134228 0.103246)
(-0.000184968 0.000184878 0.102871)
(-6.23718e-05 6.23357e-05 0.103229)
(0.000138303 7.8915e-05 0.102912)
(0.000138322 -7.8856e-05 0.102912)
(0.000134184 7.63687e-05 0.103246)
(0.000134201 -7.63085e-05 0.103246)
(-0.000138347 -7.88966e-05 0.102912)
(-0.000134174 7.63597e-05 0.103246)
(-0.00013423 -7.63527e-05 0.103246)
(0.000184875 -0.000185001 0.102871)
(6.23334e-05 -6.24057e-05 0.103229)
(-7.8906e-05 -0.000138294 0.102912)
(7.63991e-05 -0.000134181 0.103246)
(-7.63688e-05 -0.000134176 0.103246)
(-6.24648e-05 -6.24867e-05 0.103229)
(0.000180539 0.000180421 0.103281)
(5.47473e-05 5.47756e-05 0.10362)
(7.55972e-05 0.000132964 0.103354)
(-7.55574e-05 0.000132956 0.103354)
(7.37606e-05 0.000129535 0.103671)
(-7.37333e-05 0.000129528 0.103671)
(-0.000180516 0.000180381 0.103281)
(-5.47465e-05 5.48066e-05 0.10362)
(0.000132914 7.5624e-05 0.103354)
(0.000132927 -7.55471e-05 0.103354)
(0.000129462 7.3708e-05 0.103671)
(0.000129494 -7.37174e-05 0.103671)
(-0.000132956 -7.5606e-05 0.103354)
(-0.000129453 7.36914e-05 0.103671)
(-0.000129487 -7.36679e-05 0.103671)
(0.000180391 -0.000180568 0.103281)
(5.4781e-05 -5.47366e-05 0.10362)
(-7.56142e-05 -0.000132902 0.103354)
(7.37165e-05 -0.000129452 0.103671)
(-7.36637e-05 -0.000129427 0.103671)
(-5.47257e-05 -5.47324e-05 0.10362)
(0.000177298 0.000177252 0.103664)
(4.86801e-05 4.86905e-05 0.103987)
(7.32888e-05 0.000128504 0.103774)
(-7.32655e-05 0.000128501 0.103774)
(7.19984e-05 0.000125651 0.104076)
(-7.19779e-05 0.000125656 0.104076)
(-0.000177294 0.000177257 0.103664)
(-4.86951e-05 4.87405e-05 0.103987)
(0.000128431 7.32066e-05 0.103774)
(0.000128467 -7.32476e-05 0.103774)
(0.000125587 7.19116e-05 0.104076)
(0.000125627 -7.19723e-05 0.104076)
(-0.000128453 -7.31708e-05 0.103774)
(-0.000125579 7.18927e-05 0.104076)
(-0.000125626 -7.19134e-05 0.104076)
(0.000177242 -0.000177317 0.103664)
(4.86831e-05 -4.8636e-05 0.103987)
(-7.31402e-05 -0.000128387 0.103774)
(7.18803e-05 -0.000125567 0.104076)
(-7.18549e-05 -0.000125552 0.104076)
(-4.86316e-05 -4.8622e-05 0.103987)
(0.000175623 0.000175549 0.104023)
(4.31434e-05 4.31362e-05 0.104332)
(7.1604e-05 0.000124771 0.104175)
(-7.15835e-05 0.000124777 0.104175)
(7.05378e-05 0.000122322 0.104463)
(-7.05135e-05 0.000122327 0.104463)
(-0.000175633 0.00017557 0.104023)
(-4.31605e-05 4.31959e-05 0.104332)
(0.000124706 7.15232e-05 0.104175)
(0.000124749 -7.15798e-05 0.104175)
(0.000122252 7.04629e-05 0.104463)
(0.000122301 -7.05107e-05 0.104463)
(-0.000124749 -7.15247e-05 0.104175)
(-0.000122246 7.0435e-05 0.104463)
(-0.000122304 -7.04623e-05 0.104463)
(0.000175533 -0.000175611 0.104023)
(4.31345e-05 -4.31175e-05 0.104332)
(-7.14668e-05 -0.000124675 0.104175)
(7.04272e-05 -0.000122233 0.104463)
(-7.04032e-05 -0.000122224 0.104463)
(-4.31136e-05 -4.31187e-05 0.104332)
(0.000174595 0.00017451 0.104359)
(3.79853e-05 3.79708e-05 0.104656)
(7.02153e-05 0.000121564 0.104558)
(-7.01862e-05 0.000121569 0.104558)
(6.93125e-05 0.000119441 0.104834)
(-6.92743e-05 0.000119433 0.104834)
(-0.000174609 0.000174536 0.104359)
(-3.79893e-05 3.80227e-05 0.104657)
(0.000121495 7.0144e-05 0.104558)
(0.000121543 -7.01854e-05 0.104558)
(0.00011936 6.92455e-05 0.104834)
(0.00011941 -6.92758e-05 0.104834)
(-0.000121546 -7.01387e-05 0.104558)
(-0.000119348 6.91956e-05 0.104834)
(-0.000119416 -6.92317e-05 0.104834)
(0.000174501 -0.0001746 0.104359)
(3.79649e-05 -3.79702e-05 0.104656)
(-7.00804e-05 -0.000121466 0.104558)
(6.91982e-05 -0.000119339 0.104834)
(-6.91744e-05 -0.000119332 0.104834)
(-3.79645e-05 -3.79847e-05 0.104656)
(0.000174037 0.000173949 0.104673)
(3.31157e-05 3.30695e-05 0.104961)
(6.90273e-05 0.000118769 0.104925)
(-6.89831e-05 0.000118758 0.104925)
(6.8165e-05 0.000116851 0.10519)
(-6.81361e-05 0.000116844 0.10519)
(-0.000174036 0.000173962 0.104673)
(-3.31305e-05 3.31504e-05 0.104961)
(0.000118689 6.89615e-05 0.104925)
(0.00011874 -6.89845e-05 0.104925)
(0.000116781 6.81046e-05 0.10519)
(0.000116833 -6.81328e-05 0.10519)
(-0.000118748 -6.89418e-05 0.104925)
(-0.000116772 6.80577e-05 0.10519)
(-0.000116844 -6.80905e-05 0.10519)
(0.000173933 -0.000174047 0.104673)
(3.30829e-05 -3.31159e-05 0.104961)
(-6.8884e-05 -0.000118663 0.104925)
(6.80625e-05 -0.000116763 0.10519)
(-6.80367e-05 -0.000116757 0.10519)
(-3.3101e-05 -3.31412e-05 0.104961)
(0.000173738 0.000173619 0.104967)
(2.84912e-05 2.84047e-05 0.105246)
(6.78848e-05 0.000116242 0.105277)
(-6.78436e-05 0.000116231 0.105277)
(6.6973e-05 0.000114458 0.105532)
(-6.69239e-05 0.000114448 0.105532)
(-0.000173752 0.000173663 0.104967)
(-2.85019e-05 2.85108e-05 0.105246)
(0.000116168 6.78278e-05 0.105277)
(0.000116219 -6.78444e-05 0.105277)
(0.000114385 6.69325e-05 0.105532)
(0.000114435 -6.69251e-05 0.105532)
(-0.000116235 -6.77999e-05 0.105277)
(-0.000114383 6.68713e-05 0.105532)
(-0.000114453 -6.68804e-05 0.105532)
(0.000173626 -0.000173766 0.104967)
(2.84246e-05 -2.84891e-05 0.105246)
(-6.7749e-05 -0.000116149 0.105277)
(6.68831e-05 -0.000114364 0.105532)
(-6.68509e-05 -0.000114363 0.105532)
(-2.84665e-05 -2.85267e-05 0.105246)
(0.000173628 0.000173434 0.10524)
(2.37281e-05 2.37828e-05 0.105511)
(6.66553e-05 0.000113874 0.105615)
(-6.66099e-05 0.000113855 0.105615)
(6.57648e-05 0.000112088 0.105859)
(-6.57806e-05 0.000112056 0.105859)
(-0.000173664 0.00017353 0.10524)
(-2.36426e-05 2.38073e-05 0.105511)
(0.000113794 6.66284e-05 0.105615)
(0.000113843 -6.66183e-05 0.105615)
(0.000111976 6.56795e-05 0.105859)
(0.00011206 -6.5774e-05 0.105859)
(-0.000113869 -6.65678e-05 0.105615)
(-0.000111985 6.56726e-05 0.105859)
(-0.000112077 -6.57408e-05 0.105859)
(0.000173455 -0.000173675 0.10524)
(2.37908e-05 -2.3645e-05 0.105511)
(-6.65296e-05 -0.000113771 0.105615)
(6.56562e-05 -0.000111945 0.105859)
(-6.56491e-05 -0.000111963 0.105859)
(-2.377e-05 -2.36788e-05 0.105511)
(0.000173238 0.000173193 0.105491)
(1.88654e-05 1.89385e-05 0.105754)
(6.55242e-05 0.000111512 0.105938)
(-6.55407e-05 0.000111476 0.105938)
(6.47937e-05 0.000109785 0.106172)
(-6.48115e-05 0.000109791 0.106172)
(-0.000173165 0.000173178 0.105492)
(-1.87956e-05 1.89397e-05 0.105754)
(0.000111401 6.54333e-05 0.105939)
(0.00011148 -6.55281e-05 0.105938)
(0.000109711 6.47045e-05 0.106172)
(0.00010979 -6.47935e-05 0.106172)
(-0.000111495 -6.55001e-05 0.105938)
(-0.000109694 6.46815e-05 0.106172)
(-0.000109782 -6.47617e-05 0.106172)
(0.000173182 -0.000173187 0.105492)
(1.89661e-05 -1.88261e-05 0.105754)
(-6.53993e-05 -0.000111365 0.105939)
(6.46505e-05 -0.000109686 0.106172)
(-6.46546e-05 -0.000109664 0.106172)
(-1.88909e-05 -1.88115e-05 0.105754)
(0.0001723 0.000172275 0.105721)
(1.4409e-05 1.44902e-05 0.105976)
(6.45442e-05 0.000109253 0.106248)
(-6.45661e-05 0.000109265 0.106248)
(6.38087e-05 0.000107805 0.10647)
(-6.38463e-05 0.00010783 0.10647)
(-0.000172249 0.000172253 0.105721)
(-1.4354e-05 1.44644e-05 0.105976)
(0.00010919 6.4459e-05 0.106248)
(0.000109267 -6.45462e-05 0.106248)
(0.000107745 6.3731e-05 0.106471)
(0.000107821 -6.38171e-05 0.10647)
(-0.000109221 -6.4508e-05 0.106248)
(-0.000107664 6.36976e-05 0.106471)
(-0.000107754 -6.37787e-05 0.10647)
(0.000172293 -0.000172307 0.105721)
(1.45106e-05 -1.43898e-05 0.105976)
(-6.44001e-05 -0.000109102 0.106248)
(6.3671e-05 -0.000107715 0.106471)
(-6.36681e-05 -0.000107634 0.106471)
(-1.44065e-05 -1.4335e-05 0.105976)
(0.000171121 0.000171104 0.105928)
(1.02769e-05 1.0353e-05 0.106174)
(6.35549e-05 0.000107267 0.106543)
(-6.35881e-05 0.000107303 0.106543)
(6.27065e-05 0.000105639 0.106754)
(-6.27248e-05 0.000105657 0.106754)
(-0.000171078 0.000171059 0.105928)
(-1.02289e-05 1.02988e-05 0.106174)
(0.000107224 6.34753e-05 0.106543)
(0.000107299 -6.35622e-05 0.106543)
(0.0001056 6.26246e-05 0.106754)
(0.000105676 -6.27155e-05 0.106754)
(-0.000107237 -6.35242e-05 0.106543)
(-0.000105508 6.25833e-05 0.106754)
(-0.000105624 -6.26795e-05 0.106754)
(0.000171118 -0.000171149 0.105928)
(1.03718e-05 -1.0264e-05 0.106174)
(-6.34129e-05 -0.000107102 0.106543)
(6.25668e-05 -0.000105565 0.106754)
(-6.25612e-05 -0.000105486 0.106754)
(-1.02753e-05 -1.02126e-05 0.106174)
(0.000169337 0.000169319 0.10611)
(6.48494e-06 6.56643e-06 0.106346)
(6.2428e-05 0.000105111 0.106822)
(-6.24441e-05 0.000105115 0.106822)
(6.15115e-05 0.000103285 0.107021)
(-6.15291e-05 0.000103299 0.107021)
(-0.000169296 0.000169247 0.10611)
(-6.43027e-06 6.50867e-06 0.106347)
(0.000105066 6.23493e-05 0.106822)
(0.000105143 -6.24399e-05 0.106822)
(0.000103253 6.14425e-05 0.107022)
(0.000103333 -6.15318e-05 0.107021)
(-0.000105089 -6.24023e-05 0.106822)
(-0.000103164 6.14019e-05 0.107022)
(-0.000103286 -6.14915e-05 0.107021)
(0.000169331 -0.000169373 0.10611)
(6.57931e-06 -6.47899e-06 0.106346)
(-6.2286e-05 -0.000104967 0.106822)
(6.13812e-05 -0.000103216 0.107022)
(-6.13728e-05 -0.000103139 0.107022)
(-6.48542e-06 -6.43285e-06 0.106346)
(0.000166663 0.000166651 0.106267)
(2.41651e-06 2.48496e-06 0.106491)
(6.10993e-05 0.000102543 0.107086)
(-6.11014e-05 0.000102538 0.107086)
(5.98868e-05 0.000100265 0.107271)
(-5.98954e-05 0.000100239 0.107271)
(-0.000166615 0.000166582 0.106267)
(-2.36115e-06 2.44043e-06 0.106492)
(0.00010249 6.10283e-05 0.107086)
(0.000102568 -6.11174e-05 0.107085)
(0.00010019 5.98343e-05 0.107272)
(0.000100268 -5.99176e-05 0.107271)
(-0.000102521 -6.10778e-05 0.107086)
(-0.000100138 5.97977e-05 0.107272)
(-0.000100224 -5.98798e-05 0.107271)
(0.000166657 -0.000166703 0.106267)
(2.50313e-06 -2.41577e-06 0.106491)
(-6.09554e-05 -0.000102389 0.107086)
(5.97778e-05 -0.000100152 0.107272)
(-5.97588e-05 -0.000100115 0.107272)
(-2.41745e-06 -2.37431e-06 0.106491)
(0.000162382 0.000162351 0.106397)
(-3.68408e-06 -3.60983e-06 0.106605)
(5.93258e-05 9.92643e-05 0.107331)
(-5.93336e-05 9.92665e-05 0.107331)
(5.62657e-05 9.4376e-05 0.1075)
(-5.62757e-05 9.43713e-05 0.1075)
(-0.00016233 0.000162295 0.106397)
(3.7363e-06 -3.65329e-06 0.106605)
(9.92108e-05 5.92662e-05 0.107331)
(9.92736e-05 -5.93484e-05 0.107331)
(9.4319e-05 5.62005e-05 0.1075)
(9.44112e-05 -5.6273e-05 0.1075)
(-9.92488e-05 -5.93112e-05 0.107331)
(-9.42642e-05 5.61664e-05 0.1075)
(-9.43616e-05 -5.62451e-05 0.1075)
(0.00016237 -0.000162422 0.106397)
(-3.61637e-06 3.67573e-06 0.106605)
(-5.9194e-05 -9.91246e-05 0.107331)
(5.61658e-05 -9.42956e-05 0.1075)
(-5.61237e-05 -9.42421e-05 0.1075)
(3.67917e-06 3.71351e-06 0.106605)
(0.000154143 0.000154126 0.106496)
(-1.54177e-05 -1.52729e-05 0.106677)
(5.46363e-05 9.19873e-05 0.107552)
(-5.46375e-05 9.19716e-05 0.107552)
(4.91186e-05 8.32195e-05 0.107693)
(-4.91607e-05 8.32562e-05 0.107693)
(-0.000154094 0.000154065 0.106496)
(1.53872e-05 -1.52864e-05 0.106677)
(9.19425e-05 5.46025e-05 0.107553)
(9.2037e-05 -5.46539e-05 0.107552)
(8.31718e-05 4.90623e-05 0.107694)
(8.32328e-05 -4.9136e-05 0.107693)
(-9.19923e-05 -5.46211e-05 0.107552)
(-8.31729e-05 4.90456e-05 0.107694)
(-8.32297e-05 -4.91199e-05 0.107693)
(0.00015412 -0.000154226 0.106496)
(-1.53076e-05 1.54131e-05 0.106677)
(-5.45085e-05 -9.18492e-05 0.107553)
(4.89803e-05 -8.31479e-05 0.107694)
(-4.90147e-05 -8.31404e-05 0.107694)
(1.53309e-05 1.53774e-05 0.106677)
(0.000139393 0.000139429 0.106554)
(-3.45674e-05 -3.44565e-05 0.106704)
(4.65148e-05 7.90098e-05 0.107734)
(-4.65413e-05 7.90432e-05 0.107734)
(3.67258e-05 6.20914e-05 0.107833)
(-3.67787e-05 6.21213e-05 0.107833)
(-0.000139411 0.00013941 0.106554)
(3.44969e-05 -3.44831e-05 0.106704)
(7.89437e-05 4.6439e-05 0.107735)
(7.90122e-05 -4.65099e-05 0.107734)
(6.20117e-05 3.66514e-05 0.107834)
(6.21247e-05 -3.67675e-05 0.107833)
(-7.90112e-05 -4.64807e-05 0.107734)
(-6.20583e-05 3.66713e-05 0.107834)
(-6.20903e-05 -3.66901e-05 0.107833)
(0.000139402 -0.000139432 0.106554)
(-3.44169e-05 3.45661e-05 0.106703)
(-4.64036e-05 -7.89204e-05 0.107735)
(3.66513e-05 -6.20117e-05 0.107834)
(-3.66393e-05 -6.19907e-05 0.107834)
(3.44851e-05 3.45527e-05 0.106703)
(0.000117369 0.00011738 0.10657)
(-5.44162e-05 -5.43646e-05 0.1067)
(3.31511e-05 5.56959e-05 0.107858)
(-3.31958e-05 5.57241e-05 0.107858)
(2.31056e-05 3.77773e-05 0.107912)
(-2.31021e-05 3.77938e-05 0.107912)
(-0.000117429 0.000117359 0.10657)
(5.44504e-05 -5.43832e-05 0.1067)
(5.56409e-05 3.30607e-05 0.107859)
(5.57432e-05 -3.3179e-05 0.107858)
(3.77303e-05 2.30164e-05 0.107912)
(3.77892e-05 -2.30749e-05 0.107911)
(-5.57e-05 -3.31192e-05 0.107858)
(-3.76804e-05 2.30035e-05 0.107912)
(-3.77663e-05 -2.30754e-05 0.107912)
(0.00011744 -0.000117417 0.10657)
(-5.43694e-05 5.4458e-05 0.106699)
(-3.30549e-05 -5.5603e-05 0.107859)
(2.29974e-05 -3.76802e-05 0.107912)
(-2.29941e-05 -3.76911e-05 0.107912)
(5.43808e-05 5.44162e-05 0.106699)
(9.69079e-05 9.68601e-05 0.106561)
(-6.69786e-05 -6.69538e-05 0.106686)
(2.03739e-05 3.28631e-05 0.107924)
(-2.0347e-05 3.28803e-05 0.107924)
(1.43031e-05 2.1907e-05 0.107945)
(-1.42988e-05 2.1942e-05 0.107945)
(-9.68445e-05 9.68389e-05 0.106561)
(6.70197e-05 -6.69727e-05 0.106687)
(3.28263e-05 2.02753e-05 0.107924)
(3.2861e-05 -2.03143e-05 0.107923)
(2.18712e-05 1.42159e-05 0.107946)
(2.19144e-05 -1.42845e-05 0.107945)
(-3.28505e-05 -2.03361e-05 0.107924)
(-2.18323e-05 1.41831e-05 0.107946)
(-2.19241e-05 -1.4295e-05 0.107945)
(9.68482e-05 -9.68975e-05 0.106561)
(-6.69849e-05 6.69922e-05 0.106686)
(-2.02506e-05 -3.27798e-05 0.107924)
(1.41809e-05 -2.18604e-05 0.107946)
(-1.41997e-05 -2.18672e-05 0.107946)
(6.69626e-05 6.69606e-05 0.106686)
(8.45199e-05 8.44612e-05 0.106545)
(-7.37729e-05 -7.3727e-05 0.106666)
(1.28657e-05 1.91979e-05 0.107949)
(-1.28705e-05 1.92377e-05 0.107949)
(9.24604e-06 1.23516e-05 0.107952)
(-9.28591e-06 1.23937e-05 0.107952)
(-8.44805e-05 8.44445e-05 0.106545)
(7.3762e-05 -7.37439e-05 0.106667)
(1.91569e-05 1.27628e-05 0.107949)
(1.92145e-05 -1.28664e-05 0.107949)
(1.22935e-05 9.17015e-06 0.107953)
(1.23666e-05 -9.27721e-06 0.107952)
(-1.92279e-05 -1.28654e-05 0.107949)
(-1.23094e-05 9.15284e-06 0.107953)
(-1.23798e-05 -9.25116e-06 0.107952)
(8.44497e-05 -8.4561e-05 0.106545)
(-7.37527e-05 7.37392e-05 0.106666)
(-1.2766e-05 -1.91745e-05 0.107949)
(9.14385e-06 -1.2336e-05 0.107953)
(-9.15128e-06 -1.23212e-05 0.107953)
(7.37288e-05 7.37308e-05 0.106666)
(7.76621e-05 7.7629e-05 0.106525)
(-7.76772e-05 -7.76296e-05 0.10665)
(8.17444e-06 1.0373e-05 0.107952)
(-8.20216e-06 1.04137e-05 0.107952)
(5.48604e-06 5.70227e-06 0.107949)
(-5.51908e-06 5.74482e-06 0.107949)
(-7.76649e-05 7.76093e-05 0.106525)
(7.76782e-05 -7.76471e-05 0.106651)
(1.03158e-05 8.08046e-06 0.107953)
(1.03864e-05 -8.19311e-06 0.107952)
(5.64627e-06 5.42183e-06 0.10795)
(5.70849e-06 -5.50057e-06 0.107949)
(-1.04027e-05 -8.16682e-06 0.107952)
(-5.65547e-06 5.40473e-06 0.10795)
(-5.7264e-06 -5.47482e-06 0.107949)
(7.76132e-05 -7.77326e-05 0.106525)
(-7.76666e-05 7.76669e-05 0.10665)
(-8.0722e-06 -1.03403e-05 0.107952)
(5.38725e-06 -5.67041e-06 0.10795)
(-5.39081e-06 -5.65366e-06 0.10795)
(7.76382e-05 7.76573e-05 0.10665)
(7.38601e-05 7.38357e-05 0.10651)
(-7.89752e-05 -7.89255e-05 0.106643)
(4.87211e-06 4.61349e-06 0.107948)
(-4.88348e-06 4.64579e-06 0.107948)
(3.68856e-06 2.56563e-06 0.107946)
(-3.70932e-06 2.58804e-06 0.107946)
(-7.38557e-05 7.38116e-05 0.10651)
(7.89818e-05 -7.89506e-05 0.106643)
(4.54809e-06 4.77505e-06 0.107949)
(4.61496e-06 -4.86634e-06 0.107948)
(2.50163e-06 3.63562e-06 0.107946)
(2.56456e-06 -3.68577e-06 0.107945)
(-4.62972e-06 -4.83883e-06 0.107948)
(-2.49756e-06 3.61697e-06 0.107947)
(-2.57239e-06 -3.67542e-06 0.107946)
(7.38086e-05 -7.39113e-05 0.10651)
(-7.8949e-05 7.89964e-05 0.106643)
(-4.75643e-06 -4.5543e-06 0.107949)
(3.59431e-06 -2.48758e-06 0.107946)
(-3.60011e-06 -2.48636e-06 0.107946)
(7.89321e-05 7.89669e-05 0.106643)
(7.26896e-05 7.26762e-05 0.106503)
(-7.91893e-05 -7.91699e-05 0.10664)
(3.50828e-06 2.19461e-06 0.107945)
(-3.50225e-06 2.20888e-06 0.107945)
(3.16491e-06 1.77206e-06 0.107944)
(-3.19841e-06 1.80706e-06 0.107944)
(-7.26811e-05 7.26426e-05 0.106503)
(7.92103e-05 -7.91662e-05 0.106641)
(2.11834e-06 3.403e-06 0.107945)
(2.19304e-06 -3.48442e-06 0.107945)
(1.72483e-06 3.11979e-06 0.107945)
(1.79101e-06 -3.18105e-06 0.107944)
(-2.19664e-06 -3.47837e-06 0.107945)
(-1.69912e-06 3.11293e-06 0.107945)
(-1.78087e-06 -3.17387e-06 0.107944)
(7.2661e-05 -7.27163e-05 0.106503)
(-7.9158e-05 7.92077e-05 0.10664)
(-3.40328e-06 -2.10989e-06 0.107945)
(3.10369e-06 -1.69948e-06 0.107944)
(-3.09527e-06 -1.69918e-06 0.107944)
(7.91536e-05 7.91774e-05 0.10664)
(7.24787e-05 7.24461e-05 0.106501)
(-7.92105e-05 -7.91907e-05 0.106639)
(3.15849e-06 1.73674e-06 0.107944)
(-3.1566e-06 1.75899e-06 0.107944)
(3.05557e-06 1.66863e-06 0.107943)
(-3.09593e-06 1.7058e-06 0.107943)
(-7.2467e-05 7.24343e-05 0.106501)
(7.92303e-05 -7.91914e-05 0.10664)
(1.66558e-06 3.03968e-06 0.107944)
(1.74808e-06 -3.14148e-06 0.107943)
(1.62536e-06 3.02247e-06 0.107944)
(1.69074e-06 -3.08006e-06 0.107943)
(-1.73853e-06 -3.13328e-06 0.107944)
(-1.60208e-06 3.00382e-06 0.107944)
(-1.68065e-06 -3.07044e-06 0.107943)
(7.24563e-05 -7.25132e-05 0.106501)
(-7.91836e-05 7.92278e-05 0.106639)
(-3.05578e-06 -1.65864e-06 0.107944)
(2.99387e-06 -1.60669e-06 0.107944)
(-2.98717e-06 -1.60968e-06 0.107944)
(7.91767e-05 7.91947e-05 0.106639)
(7.24405e-05 7.24282e-05 0.1065)
(-7.91923e-05 -7.91739e-05 0.106639)
(3.10269e-06 1.67767e-06 0.107943)
(-3.08829e-06 1.69128e-06 0.107943)
(3.03451e-06 1.64468e-06 0.107943)
(-3.08371e-06 1.68737e-06 0.107943)
(-7.24383e-05 7.24003e-05 0.1065)
(7.92057e-05 -7.91737e-05 0.10664)
(1.59104e-06 2.96425e-06 0.107944)
(1.68036e-06 -3.07583e-06 0.107943)
(1.60692e-06 3.02314e-06 0.107944)
(1.66502e-06 -3.05999e-06 0.107943)
(-1.6727e-06 -3.06452e-06 0.107943)
(-1.58725e-06 2.99368e-06 0.107944)
(-1.65677e-06 -3.04492e-06 0.107943)
(7.24207e-05 -7.24867e-05 0.1065)
(-7.91692e-05 7.92092e-05 0.106639)
(-2.97991e-06 -1.60272e-06 0.107944)
(2.9748e-06 -1.58755e-06 0.107943)
(-2.96194e-06 -1.58408e-06 0.107943)
(7.91624e-05 7.91865e-05 0.106639)
(7.24299e-05 7.24357e-05 0.1065)
(3.1092e-06 1.66711e-06 0.107943)
(-3.07961e-06 1.67629e-06 0.107943)
(-7.24433e-05 7.23974e-05 0.1065)
(1.56472e-06 2.95118e-06 0.107943)
(1.6631e-06 -3.0611e-06 0.107943)
(-1.65649e-06 -3.04574e-06 0.107943)
(7.24095e-05 -7.24762e-05 0.1065)
(-2.96509e-06 -1.58267e-06 0.107943)
(-2.96905e-07 -3.00107e-07 0.0999988)
(1.64912e-05 1.64871e-05 0.100003)
(-4.71259e-07 1.37352e-05 0.1)
(1.37434e-05 -4.74211e-07 0.1)
(-4.58639e-05 5.48132e-06 0.100008)
(-1.49482e-05 1.49408e-05 0.1)
(-0.000126977 6.05501e-05 0.100059)
(-1.28405e-05 -8.365e-07 0.0999958)
(5.47769e-06 -4.58486e-05 0.100008)
(1.49426e-05 -1.49486e-05 0.1)
(-8.33818e-07 -1.28399e-05 0.0999958)
(6.05579e-05 -0.000126908 0.100059)
(-1.79026e-05 -1.79043e-05 0.100003)
(-0.000135032 -8.16157e-05 0.100056)
(-8.16316e-05 -0.000135013 0.100056)
(-2.41475e-05 0.000137457 0.10072)
(0.000205046 0.00029879 0.0993425)
(2.3324e-05 0.000303537 0.100516)
(-8.8524e-05 0.000210239 0.0991633)
(-0.000332077 0.000893196 0.0976546)
(-8.39397e-05 0.000336183 0.0957632)
(0.000137284 -2.42482e-05 0.10072)
(0.00029938 0.0002038 0.0993431)
(0.000304365 2.32343e-05 0.100516)
(0.000210446 -8.82443e-05 0.0991637)
(-0.000105989 0.000105939 0.100294)
(0.000105979 -0.000105993 0.100294)
(-0.000105972 -0.000105992 0.100294)
(9.1597e-05 9.15105e-05 0.100744)
(-9.15603e-05 9.15247e-05 0.100744)
(9.1562e-05 -9.1593e-05 0.100744)
(-9.15428e-05 -9.16071e-05 0.100744)
(-0.00027866 7.25828e-07 0.100753)
(-0.000402198 0.000206423 0.100512)
(-0.000177858 3.70434e-05 0.10033)
(-0.000151395 9.49535e-05 0.100554)
(-0.000345817 1.9726e-05 0.100469)
(-0.000179872 0.000173261 0.100756)
(-0.00015004 3.39294e-05 0.100494)
(0.000892158 -0.000330373 0.0976531)
(0.000336368 -8.37065e-05 0.0957642)
(6.63083e-07 -0.000278553 0.100753)
(3.7088e-05 -0.000177861 0.10033)
(0.000206519 -0.000402135 0.100513)
(9.48977e-05 -0.000151392 0.100554)
(1.97872e-05 -0.000345717 0.100469)
(3.39816e-05 -0.000149999 0.100495)
(0.000173305 -0.000179841 0.100755)
(-0.000390751 -0.000137932 0.100362)
(-0.000138039 -0.000390962 0.100362)
(-0.000111356 -0.000111465 0.100654)
(2.45559e-05 -9.68202e-05 0.100589)
(-9.70298e-05 2.46431e-05 0.100589)
(-1.25743e-05 0.000188535 0.100863)
(-4.76163e-05 0.000252047 0.0983054)
(-1.40141e-05 0.000192512 0.100772)
(-4.18494e-05 0.000245876 0.097939)
(-0.000142272 0.000340809 0.0926065)
(-0.000124784 0.000292226 0.0909905)
(0.000188468 -1.26998e-05 0.100862)
(0.000252307 -4.75047e-05 0.0983057)
(0.000192524 -1.41114e-05 0.100773)
(0.000246037 -4.17678e-05 0.0979392)