/*--------------------------------*- C++ -*----------------------------------*\
| =========                 |                                                 |
| \\      /  F ield         | OpenFOAM: The Open Source CFD Toolbox           |
|  \\    /   O peration     | Version:  v1912                                 |
|   \\  /    A nd           | Website:  www.openfoam.com                      |
|    \\/     M anipulation  |                                                 |
\*---------------------------------------------------------------------------*/
FoamFile
{
    version     2.0;
    format      ascii;
    class       volScalarField;
    location    "40";
    object      k;
}
// * * * * * * * * * * * * * * * * * * * * * * * * * * * * * * * * * * * * * //

dimensions      [0 2 -2 0 0 0 0];


internalField   nonuniform List<scalar> 
57100
(
3.58931e-05
3.58911e-05
3.58911e-05
3.59955e-05
3.39296e-05
3.38891e-05
3.38891e-05
3.39623e-05
3.21579e-05
3.2008e-05
3.2008e-05
3.1952e-05
3.05345e-05
3.02287e-05
3.02286e-05
2.99881e-05
2.90305e-05
2.85521e-05
2.8552e-05
2.81227e-05
2.76379e-05
2.69892e-05
2.69891e-05
2.63929e-05
2.63267e-05
2.55262e-05
2.5526e-05
2.48055e-05
2.51196e-05
2.41984e-05
2.41981e-05
2.33924e-05
2.38998e-05
2.28936e-05
2.28934e-05
2.20756e-05
2.32521e-05
2.23081e-05
2.23079e-05
2.14866e-05
2.31237e-05
2.22835e-05
2.22833e-05
2.15451e-05
2.31222e-05
2.23119e-05
2.23117e-05
2.16117e-05
2.31246e-05
2.23224e-05
2.23222e-05
2.1631e-05
2.31265e-05
2.23271e-05
2.23269e-05
2.16398e-05
2.31278e-05
2.23297e-05
2.23296e-05
2.16439e-05
2.3128e-05
2.23315e-05
2.23314e-05
2.16446e-05
2.3128e-05
2.23326e-05
2.23325e-05
2.16446e-05
2.31281e-05
2.23326e-05
2.23325e-05
2.16446e-05
2.31281e-05
2.23326e-05
2.23324e-05
2.16444e-05
2.31281e-05
2.23326e-05
2.23324e-05
2.16446e-05
2.3128e-05
2.23326e-05
2.23325e-05
2.16446e-05
2.3128e-05
2.23327e-05
2.23325e-05
2.16446e-05
2.31281e-05
2.23327e-05
2.23326e-05
2.16444e-05
2.31281e-05
2.23327e-05
2.23325e-05
2.16445e-05
2.3128e-05
2.23326e-05
2.23324e-05
2.16446e-05
2.3128e-05
2.23326e-05
2.23324e-05
2.16446e-05
2.31281e-05
2.23328e-05
2.23325e-05
2.16445e-05
2.31281e-05
2.23327e-05
2.23325e-05
2.16445e-05
2.31281e-05
2.23326e-05
2.23325e-05
2.16445e-05
2.31281e-05
2.23326e-05
2.2333e-05
2.16445e-05
3.63069e-05
3.6291e-05
3.6291e-05
3.63069e-05
3.6291e-05
3.6291e-05
3.64231e-05
3.6423e-05
3.6423e-05
3.6423e-05
3.6291e-05
3.6291e-05
3.63069e-05
3.6291e-05
3.6291e-05
3.63069e-05
3.59955e-05
3.42691e-05
3.58911e-05
3.58911e-05
3.43769e-05
3.43769e-05
3.59955e-05
3.42691e-05
3.58911e-05
3.58911e-05
3.43769e-05
3.43769e-05
3.58911e-05
3.4377e-05
3.43769e-05
3.59955e-05
3.42691e-05
3.58911e-05
3.4377e-05
3.43769e-05
3.42691e-05
3.39623e-05
3.22639e-05
3.38891e-05
3.3889e-05
3.24682e-05
3.24681e-05
3.39623e-05
3.2264e-05
3.38891e-05
3.3889e-05
3.24683e-05
3.24681e-05
3.38891e-05
3.24684e-05
3.24682e-05
3.39623e-05
3.22639e-05
3.38891e-05
3.24683e-05
3.24682e-05
3.22639e-05
3.19521e-05
3.02999e-05
3.20078e-05
3.20078e-05
3.06635e-05
3.06633e-05
3.19521e-05
3.03e-05
3.20079e-05
3.20077e-05
3.06636e-05
3.06632e-05
3.20078e-05
3.06638e-05
3.06634e-05
3.1952e-05
3.02998e-05
3.20079e-05
3.06637e-05
3.06635e-05
3.02998e-05
2.99882e-05
2.84264e-05
3.02285e-05
3.02283e-05
2.89617e-05
2.89615e-05
2.99883e-05
2.84266e-05
3.02286e-05
3.02282e-05
2.89619e-05
2.89614e-05
3.02285e-05
2.89621e-05
2.89616e-05
2.99882e-05
2.84263e-05
3.02286e-05
2.8962e-05
2.89618e-05
2.84263e-05
2.81228e-05
2.66757e-05
2.85516e-05
2.85514e-05
2.73699e-05
2.73696e-05
2.81229e-05
2.66759e-05
2.85518e-05
2.85513e-05
2.73702e-05
2.73695e-05
2.85516e-05
2.73706e-05
2.73698e-05
2.81227e-05
2.66756e-05
2.85518e-05
2.73705e-05
2.73701e-05
2.66756e-05
2.63931e-05
2.50648e-05
2.69889e-05
2.69886e-05
2.58769e-05
2.58766e-05
2.63932e-05
2.5065e-05
2.69892e-05
2.69885e-05
2.58773e-05
2.58764e-05
2.69888e-05
2.58777e-05
2.58769e-05
2.63929e-05
2.50647e-05
2.69892e-05
2.58775e-05
2.58773e-05
2.50647e-05
2.48056e-05
2.36259e-05
2.55254e-05
2.55252e-05
2.45305e-05
2.45302e-05
2.48058e-05
2.36261e-05
2.55258e-05
2.5525e-05
2.4531e-05
2.453e-05
2.55255e-05
2.45317e-05
2.45304e-05
2.48055e-05
2.36257e-05
2.55259e-05
2.45314e-05
2.45309e-05
2.36256e-05
2.33926e-05
2.22732e-05
2.41979e-05
2.41977e-05
2.31845e-05
2.31841e-05
2.33928e-05
2.22734e-05
2.41985e-05
2.41974e-05
2.31851e-05
2.31839e-05
2.41979e-05
2.31855e-05
2.31844e-05
2.33924e-05
2.22729e-05
2.41984e-05
2.31852e-05
2.3185e-05
2.22727e-05
2.20759e-05
2.15147e-05
2.28927e-05
2.28924e-05
2.23695e-05
2.23691e-05
2.2076e-05
2.15146e-05
2.28933e-05
2.28922e-05
2.237e-05
2.23689e-05
2.28927e-05
2.23701e-05
2.23694e-05
2.20757e-05
2.15142e-05
2.28933e-05
2.23699e-05
2.23701e-05
2.15136e-05
2.14875e-05
2.15419e-05
2.23078e-05
2.23075e-05
2.22777e-05
2.22776e-05
2.14873e-05
2.1542e-05
2.23083e-05
2.23072e-05
2.22782e-05
2.22773e-05
2.23078e-05
2.22788e-05
2.22778e-05
2.14869e-05
2.15416e-05
2.23084e-05
2.22786e-05
2.22784e-05
2.1541e-05
2.15461e-05
2.16115e-05
2.22843e-05
2.22842e-05
2.23072e-05
2.23068e-05
2.15461e-05
2.16113e-05
2.22849e-05
2.22839e-05
2.23078e-05
2.23065e-05
2.22844e-05
2.23081e-05
2.23076e-05
2.15458e-05
2.16109e-05
2.22851e-05
2.23079e-05
2.23082e-05
2.16132e-05
2.16112e-05
2.16321e-05
2.23123e-05
2.2312e-05
2.23202e-05
2.23199e-05
2.16109e-05
2.16317e-05
2.23129e-05
2.23117e-05
2.23208e-05
2.23196e-05
2.23128e-05
2.23211e-05
2.23209e-05
2.16105e-05
2.16313e-05
2.23135e-05
2.23209e-05
2.23215e-05
2.16341e-05
2.16302e-05
2.16405e-05
2.23224e-05
2.23222e-05
2.23257e-05
2.23255e-05
2.16298e-05
2.16402e-05
2.2323e-05
2.23218e-05
2.23263e-05
2.23252e-05
2.23231e-05
2.23263e-05
2.23266e-05
2.16295e-05
2.16398e-05
2.23238e-05
2.23262e-05
2.23272e-05
2.16434e-05
2.16383e-05
2.16452e-05
2.2327e-05
2.23269e-05
2.2329e-05
2.23289e-05
2.1638e-05
2.16447e-05
2.23276e-05
2.23266e-05
2.23296e-05
2.23286e-05
2.2328e-05
2.23292e-05
2.23299e-05
2.16377e-05
2.16444e-05
2.23287e-05
2.23291e-05
2.23306e-05
2.16479e-05
2.16427e-05
2.16489e-05
2.23304e-05
2.23303e-05
2.23315e-05
2.23315e-05
2.16423e-05
2.16485e-05
2.2331e-05
2.233e-05
2.23321e-05
2.23311e-05
2.23314e-05
2.23311e-05
2.23321e-05
2.1642e-05
2.16481e-05
2.23321e-05
2.2331e-05
2.23327e-05
2.16492e-05
2.16463e-05
2.165e-05
2.2333e-05
2.2333e-05
2.23325e-05
2.23325e-05
2.16458e-05
2.16495e-05
2.23336e-05
2.23327e-05
2.2333e-05
2.23322e-05
2.23334e-05
2.23326e-05
2.23322e-05
2.16455e-05
2.16492e-05
2.2334e-05
2.23325e-05
2.23328e-05
2.16492e-05
2.16468e-05
2.165e-05
2.23332e-05
2.23333e-05
2.23324e-05
2.23325e-05
2.16464e-05
2.16496e-05
2.23338e-05
2.2333e-05
2.2333e-05
2.23322e-05
2.2333e-05
2.23327e-05
2.23323e-05
2.16461e-05
2.16492e-05
2.23337e-05
2.23326e-05
2.23329e-05
2.16492e-05
2.16468e-05
2.165e-05
2.23332e-05
2.23333e-05
2.23324e-05
2.23325e-05
2.16465e-05
2.16496e-05
2.23338e-05
2.23329e-05
2.2333e-05
2.23322e-05
2.2333e-05
2.23327e-05
2.23323e-05
2.16461e-05
2.16492e-05
2.23337e-05
2.23325e-05
2.23329e-05
2.1649e-05
2.16469e-05
2.165e-05
2.23332e-05
2.23333e-05
2.23324e-05
2.23325e-05
2.16465e-05
2.16496e-05
2.23338e-05
2.23329e-05
2.2333e-05
2.23321e-05
2.2333e-05
2.23327e-05
2.23323e-05
2.16461e-05
2.16492e-05
2.23336e-05
2.23325e-05
2.23329e-05
2.16492e-05
2.16469e-05
2.165e-05
2.23332e-05
2.23333e-05
2.23324e-05
2.23325e-05
2.16465e-05
2.16496e-05
2.23338e-05
2.23329e-05
2.2333e-05
2.23321e-05
2.2333e-05
2.23327e-05
2.23323e-05
2.16461e-05
2.16492e-05
2.23337e-05
2.23326e-05
2.23329e-05
2.16492e-05
2.16468e-05
2.165e-05
2.23332e-05
2.23333e-05
2.23324e-05
2.23325e-05
2.16465e-05
2.16496e-05
2.23338e-05
2.23329e-05
2.2333e-05
2.23321e-05
2.2333e-05
2.23327e-05
2.23323e-05
2.16461e-05
2.16492e-05
2.23337e-05
2.23326e-05
2.23329e-05
2.16492e-05
2.16468e-05
2.165e-05
2.23332e-05
2.23333e-05
2.23325e-05
2.23325e-05
2.16465e-05
2.16497e-05
2.23338e-05
2.23329e-05
2.2333e-05
2.23322e-05
2.2333e-05
2.23328e-05
2.23323e-05
2.16461e-05
2.16492e-05
2.23337e-05
2.23327e-05
2.23329e-05
2.1649e-05
2.16468e-05
2.165e-05
2.23332e-05
2.23333e-05
2.23325e-05
2.23325e-05
2.16466e-05
2.16497e-05
2.23338e-05
2.23329e-05
2.2333e-05
2.23322e-05
2.2333e-05
2.23328e-05
2.23323e-05
2.16461e-05
2.16492e-05
2.23336e-05
2.23326e-05
2.23329e-05
2.16491e-05
2.16468e-05
2.165e-05
2.23332e-05
2.23333e-05
2.23324e-05
2.23325e-05
2.16466e-05
2.16497e-05
2.23338e-05
2.23329e-05
2.2333e-05
2.23322e-05
2.2333e-05
2.23327e-05
2.23323e-05
2.16461e-05
2.16492e-05
2.23337e-05
2.23326e-05
2.23329e-05
2.16492e-05
2.16468e-05
2.16499e-05
2.23332e-05
2.23333e-05
2.23324e-05
2.23325e-05
2.16466e-05
2.16497e-05
2.23338e-05
2.23329e-05
2.2333e-05
2.23321e-05
2.2333e-05
2.23327e-05
2.23323e-05
2.16461e-05
2.16492e-05
2.23337e-05
2.23325e-05
2.23329e-05
2.16492e-05
2.16468e-05
2.16499e-05
2.23332e-05
2.23333e-05
2.23324e-05
2.23325e-05
2.16465e-05
2.16497e-05
2.23338e-05
2.23329e-05
2.2333e-05
2.23321e-05
2.2333e-05
2.23328e-05
2.23323e-05
2.16461e-05
2.16492e-05
2.23336e-05
2.23326e-05
2.23329e-05
2.16492e-05
2.16468e-05
2.16499e-05
2.23332e-05
2.23333e-05
2.23324e-05
2.23325e-05
2.16465e-05
2.16497e-05
2.23338e-05
2.23329e-05
2.23331e-05
2.23322e-05
2.2333e-05
2.23328e-05
2.23323e-05
2.16461e-05
2.16492e-05
2.23336e-05
2.23326e-05
2.23328e-05
2.16491e-05
2.16468e-05
2.16499e-05
2.23332e-05
2.23333e-05
2.23324e-05
2.23325e-05
2.16465e-05
2.16496e-05
2.23339e-05
2.23329e-05
2.23331e-05
2.23322e-05
2.2333e-05
2.23327e-05
2.23323e-05
2.16461e-05
2.16492e-05
2.23336e-05
2.23326e-05
2.23329e-05
2.16492e-05
2.16468e-05
2.16499e-05
2.23332e-05
2.23333e-05
2.23324e-05
2.23325e-05
2.16465e-05
2.16496e-05
2.23339e-05
2.23329e-05
2.23331e-05
2.23321e-05
2.2333e-05
2.23327e-05
2.23323e-05
2.16461e-05
2.16492e-05
2.23336e-05
2.23328e-05
2.23328e-05
2.16491e-05
2.16468e-05
2.23331e-05
2.23332e-05
2.16465e-05
2.23338e-05
2.23326e-05
2.23327e-05
2.16461e-05
2.23333e-05
3.73773e-05
3.73765e-05
3.7377e-05
3.7377e-05
3.73702e-05
3.73777e-05
3.73044e-05
3.73768e-05
3.73702e-05
3.73777e-05
3.73768e-05
3.73044e-05
3.73742e-05
3.72959e-05
3.72959e-05
3.58886e-05
4.08708e-05
3.66006e-05
4.5132e-05
5.51075e-05
6.4888e-05
3.58894e-05
4.087e-05
3.66007e-05
4.51317e-05
3.58931e-05
3.58931e-05
3.58931e-05
3.44006e-05
3.44006e-05
3.44006e-05
3.44006e-05
3.52767e-05
3.56337e-05
3.58928e-05
3.53772e-05
3.60466e-05
3.42315e-05
3.53823e-05
5.51096e-05
6.48918e-05
3.52768e-05
3.58928e-05
3.56333e-05
3.53772e-05
3.60465e-05
3.53823e-05
3.42325e-05
3.65845e-05
3.65851e-05
3.52793e-05
3.40828e-05
3.40819e-05
3.3973e-05
5.13547e-05
3.46745e-05
5.46057e-05
7.65619e-05
8.08518e-05
3.39766e-05
5.13557e-05
3.46733e-05
5.46062e-05
3.39296e-05
3.39296e-05
3.39297e-05
3.25855e-05
3.25854e-05
3.25854e-05
3.25854e-05
3.3055e-05
3.24535e-05
3.39297e-05
3.34087e-05
3.38944e-05
3.15583e-05
3.34679e-05
7.65634e-05
8.08556e-05
3.30553e-05
3.39297e-05
3.24524e-05
3.34087e-05
3.38939e-05
3.34679e-05
3.15602e-05
3.17074e-05
3.17067e-05
3.32641e-05
3.09297e-05
3.09281e-05
3.22565e-05
5.9173e-05
3.29221e-05
6.1422e-05
8.4403e-05
8.50661e-05
3.22597e-05
5.91747e-05
3.29186e-05
6.1424e-05
3.2158e-05
3.2158e-05
3.2158e-05
3.09275e-05
3.09274e-05
3.09274e-05
3.09273e-05
3.07903e-05
3.0491e-05
3.21378e-05
3.15539e-05
3.16345e-05
2.98655e-05
3.17103e-05
8.4405e-05
8.50686e-05
3.07902e-05
3.21378e-05
3.04908e-05
3.15539e-05
3.16338e-05
3.17102e-05
2.98666e-05
3.02075e-05
3.02065e-05
3.12737e-05
2.99995e-05
2.99981e-05
3.07573e-05
6.436e-05
3.13535e-05
6.57105e-05
8.46307e-05
8.38883e-05
3.07582e-05
6.43616e-05
3.13523e-05
6.5714e-05
3.05345e-05
3.05345e-05
3.05346e-05
2.93971e-05
2.9397e-05
2.9397e-05
2.9397e-05
2.86021e-05
2.91208e-05
3.04692e-05
2.98007e-05
2.94094e-05
2.86551e-05
3.00694e-05
8.46312e-05
8.38905e-05
2.8602e-05
3.04692e-05
2.91214e-05
2.98006e-05
2.94089e-05
3.00693e-05
2.8656e-05
2.9929e-05
2.99279e-05
2.93495e-05
3.00221e-05
3.00211e-05
2.95233e-05
6.73324e-05
3.0005e-05
6.80228e-05
8.22322e-05
8.11945e-05
2.95245e-05
6.73344e-05
3.00052e-05
6.80266e-05
2.90306e-05
2.90305e-05
2.90306e-05
2.79792e-05
2.7979e-05
2.7979e-05
2.7979e-05
2.65709e-05
2.81048e-05
2.89008e-05
2.81503e-05
2.73114e-05
2.7765e-05
2.85243e-05
8.22318e-05
8.1196e-05
2.65709e-05
2.89007e-05
2.81053e-05
2.81502e-05
2.73109e-05
2.85241e-05
2.77659e-05
3.04331e-05
3.04324e-05
2.75333e-05
3.07517e-05
3.07511e-05
2.86096e-05
6.87565e-05
2.89519e-05
6.90373e-05
7.94552e-05
7.85024e-05
2.86108e-05
6.87593e-05
2.89521e-05
6.90411e-05
2.7638e-05
2.7638e-05
2.76381e-05
2.66402e-05
2.664e-05
2.66399e-05
2.664e-05
2.47494e-05
2.73913e-05
2.74307e-05
2.66125e-05
2.54056e-05
2.7179e-05
2.70736e-05
7.94542e-05
7.85037e-05
2.47494e-05
2.74306e-05
2.73916e-05
2.66124e-05
2.54053e-05
2.70734e-05
2.71798e-05
3.15746e-05
3.1574e-05
2.5853e-05
3.20802e-05
3.20803e-05
2.80548e-05
6.92607e-05
2.82496e-05
6.9333e-05
7.70354e-05
7.62588e-05
2.80568e-05
6.92638e-05
2.82499e-05
6.93364e-05
2.6327e-05
2.63269e-05
2.6327e-05
2.54295e-05
2.54292e-05
2.54291e-05
2.54291e-05
2.31713e-05
2.69867e-05
2.60398e-05
2.5188e-05
2.37338e-05
2.69036e-05
2.5717e-05
7.70345e-05
7.62595e-05
2.31713e-05
2.60397e-05
2.69873e-05
2.51878e-05
2.37334e-05
2.57168e-05
2.6905e-05
3.31952e-05
3.31965e-05
2.43227e-05
3.38696e-05
3.38727e-05
2.78865e-05
6.92808e-05
2.79029e-05
6.92013e-05
7.51625e-05
7.47963e-05
2.78856e-05
6.92841e-05
2.79025e-05
6.92052e-05
2.51199e-05
2.51197e-05
2.51198e-05
2.41765e-05
2.41762e-05
2.4176e-05
2.41761e-05
2.18609e-05
2.68797e-05
2.47595e-05
2.38573e-05
2.23223e-05
2.68645e-05
2.44268e-05
7.5162e-05
7.47971e-05
2.18604e-05
2.47593e-05
2.68805e-05
2.3857e-05
2.2322e-05
2.44266e-05
2.68657e-05
3.51134e-05
3.51166e-05
2.29474e-05
3.57466e-05
3.57515e-05
2.76507e-05
6.91276e-05
2.76276e-05
6.91914e-05
7.46062e-05
7.46439e-05
2.76513e-05
6.91314e-05
2.7628e-05
6.91952e-05
2.39003e-05
2.39002e-05
2.39003e-05
2.33468e-05
2.33467e-05
2.33465e-05
2.33466e-05
2.08268e-05
2.67322e-05
2.34764e-05
2.26576e-05
2.11054e-05
2.67501e-05
2.32336e-05
7.46058e-05
7.46429e-05
2.08269e-05
2.34762e-05
2.67317e-05
2.26573e-05
2.11052e-05
2.32334e-05
2.67511e-05
3.656e-05
3.65645e-05
2.17506e-05
3.69981e-05
3.7003e-05
2.80619e-05
6.93971e-05
2.79188e-05
6.94619e-05
7.47426e-05
7.47836e-05
2.80643e-05
6.93998e-05
2.79186e-05
6.94654e-05
2.32525e-05
2.32523e-05
2.32523e-05
2.31331e-05
2.31331e-05
2.31329e-05
2.31329e-05
2.08384e-05
2.70949e-05
2.28203e-05
2.22833e-05
2.07715e-05
2.73294e-05
2.2767e-05
7.47397e-05
7.47798e-05
2.08391e-05
2.28202e-05
2.70963e-05
2.22831e-05
2.07713e-05
2.27669e-05
2.73309e-05
3.77616e-05
3.77652e-05
2.14952e-05
3.80337e-05
3.80386e-05
2.82557e-05
6.95174e-05
2.82295e-05
6.95207e-05
7.48056e-05
7.48127e-05
2.82574e-05
6.95212e-05
2.82293e-05
6.95245e-05
2.31244e-05
2.31242e-05
2.31243e-05
2.31219e-05
2.31212e-05
2.3121e-05
2.31211e-05
2.0991e-05
2.76171e-05
2.27214e-05
2.22952e-05
2.09585e-05
2.76661e-05
2.27224e-05
7.48024e-05
7.48092e-05
2.09916e-05
2.27213e-05
2.76166e-05
2.2295e-05
2.09588e-05
2.27223e-05
2.76672e-05
3.82916e-05
3.82961e-05
2.15873e-05
3.83373e-05
3.83421e-05
2.82806e-05
6.9525e-05
2.8277e-05
6.95241e-05
7.48144e-05
7.48169e-05
2.82804e-05
6.95284e-05
2.82772e-05
6.95271e-05
2.31227e-05
2.31225e-05
2.31226e-05
2.31241e-05
2.31239e-05
2.31238e-05
2.31239e-05
2.10307e-05
2.77014e-05
2.27253e-05
2.2317e-05
2.10228e-05
2.77027e-05
2.27281e-05
7.48098e-05
7.48127e-05
2.10307e-05
2.27252e-05
2.77023e-05
2.23169e-05
2.1023e-05
2.2728e-05
2.77038e-05
3.83439e-05
3.83486e-05
2.16268e-05
3.83402e-05
3.8345e-05
2.82929e-05
6.95268e-05
2.82928e-05
6.95255e-05
7.48158e-05
7.48179e-05
2.82935e-05
6.95296e-05
2.82926e-05
6.95281e-05
2.31254e-05
2.31252e-05
2.31253e-05
2.31261e-05
2.31265e-05
2.31263e-05
2.31265e-05
2.10461e-05
2.77178e-05
2.27313e-05
2.23249e-05
2.10427e-05
2.77147e-05
2.27332e-05
7.4811e-05
7.48134e-05
2.10462e-05
2.27312e-05
2.77185e-05
2.23248e-05
2.10426e-05
2.27331e-05
2.77158e-05
3.83462e-05
3.83508e-05
2.16397e-05
3.83439e-05
3.83486e-05
2.82977e-05
6.95276e-05
2.83e-05
6.95261e-05
7.48165e-05
7.48184e-05
2.82992e-05
6.95302e-05
2.83009e-05
6.95285e-05
2.3128e-05
2.31278e-05
2.3128e-05
2.31278e-05
2.31283e-05
2.31281e-05
2.31283e-05
2.10547e-05
2.77248e-05
2.27345e-05
2.23287e-05
2.10528e-05
2.77196e-05
2.27357e-05
7.48113e-05
7.48138e-05
2.10549e-05
2.27344e-05
2.77257e-05
2.23285e-05
2.1053e-05
2.27357e-05
2.77208e-05
3.83498e-05
3.83544e-05
2.16465e-05
3.83465e-05
3.83513e-05
2.82985e-05
6.95279e-05
2.8302e-05
6.95262e-05
7.48167e-05
7.48185e-05
2.83003e-05
6.95304e-05
2.83034e-05
6.95286e-05
2.31294e-05
2.31292e-05
2.31294e-05
2.31281e-05
2.31288e-05
2.31286e-05
2.31287e-05
2.10625e-05
2.77272e-05
2.27363e-05
2.23309e-05
2.1061e-05
2.77209e-05
2.27374e-05
7.48115e-05
7.4814e-05
2.10627e-05
2.27363e-05
2.77282e-05
2.23308e-05
2.10611e-05
2.27373e-05
2.77222e-05
3.83512e-05
3.8356e-05
2.16493e-05
3.83473e-05
3.83521e-05
2.82985e-05
6.95279e-05
2.8302e-05
6.95263e-05
7.48163e-05
7.48183e-05
2.83003e-05
6.95304e-05
2.83035e-05
6.95285e-05
2.31297e-05
2.31295e-05
2.31295e-05
2.31281e-05
2.31289e-05
2.31288e-05
2.31287e-05
2.10638e-05
2.77275e-05
2.27376e-05
2.23325e-05
2.10638e-05
2.7721e-05
2.27386e-05
7.48116e-05
7.4814e-05
2.10644e-05
2.27375e-05
2.77285e-05
2.23324e-05
2.10642e-05
2.27385e-05
2.77224e-05
3.83514e-05
3.83562e-05
2.16498e-05
3.83473e-05
3.83522e-05
2.82986e-05
6.9528e-05
2.8302e-05
6.95263e-05
7.48167e-05
7.48186e-05
2.83003e-05
6.95303e-05
2.83035e-05
6.95285e-05
2.31297e-05
2.31295e-05
2.31294e-05
2.31282e-05
2.31289e-05
2.31288e-05
2.31287e-05
2.10639e-05
2.77275e-05
2.27377e-05
2.23336e-05
2.10635e-05
2.7721e-05
2.27385e-05
7.48117e-05
7.48139e-05
2.10642e-05
2.27376e-05
2.77286e-05
2.23336e-05
2.10639e-05
2.27384e-05
2.77224e-05
3.83514e-05
3.83562e-05
2.16498e-05
3.83474e-05
3.83522e-05
2.82986e-05
6.9528e-05
2.8302e-05
6.95264e-05
7.48167e-05
7.4817e-05
2.83004e-05
6.95303e-05
2.83035e-05
6.95285e-05
2.31297e-05
2.31295e-05
2.31294e-05
2.31282e-05
2.31289e-05
2.31288e-05
2.31287e-05
2.10639e-05
2.77276e-05
2.27377e-05
2.23334e-05
2.10635e-05
2.77211e-05
2.27385e-05
7.48117e-05
7.48141e-05
2.10642e-05
2.27376e-05
2.77286e-05
2.23333e-05
2.10638e-05
2.27384e-05
2.77224e-05
3.83515e-05
3.83563e-05
2.16497e-05
3.83474e-05
3.83522e-05
2.82986e-05
6.9528e-05
2.83021e-05
6.95264e-05
7.48141e-05
7.48167e-05
2.83003e-05
6.95304e-05
2.83035e-05
6.95285e-05
2.31297e-05
2.31295e-05
2.31294e-05
2.31282e-05
2.3129e-05
2.31288e-05
2.31287e-05
2.10638e-05
2.77276e-05
2.27377e-05
2.23334e-05
2.10634e-05
2.77211e-05
2.27385e-05
7.48115e-05
7.48139e-05
2.10642e-05
2.27376e-05
2.77286e-05
2.23333e-05
2.10638e-05
2.27384e-05
2.77224e-05
3.83515e-05
3.83563e-05
2.16496e-05
3.83474e-05
3.83522e-05
2.82986e-05
6.9528e-05
2.83021e-05
6.95264e-05
7.48159e-05
7.48182e-05
2.83003e-05
6.95303e-05
2.83035e-05
6.95285e-05
2.31297e-05
2.31295e-05
2.31294e-05
2.31281e-05
2.3129e-05
2.31288e-05
2.31287e-05
2.10639e-05
2.77276e-05
2.27377e-05
2.23334e-05
2.10635e-05
2.77211e-05
2.27385e-05
7.48115e-05
7.48141e-05
2.10642e-05
2.27376e-05
2.77285e-05
2.23333e-05
2.10638e-05
2.27384e-05
2.77223e-05
3.83515e-05
3.83562e-05
2.16498e-05
3.83474e-05
3.83522e-05
2.82986e-05
6.95281e-05
2.83021e-05
6.95262e-05
7.48162e-05
7.48174e-05
2.83003e-05
6.95303e-05
2.83035e-05
6.95291e-05
2.31297e-05
2.31295e-05
2.31294e-05
2.31281e-05
2.3129e-05
2.31288e-05
2.31287e-05
2.10639e-05
2.77276e-05
2.27377e-05
2.23335e-05
2.10635e-05
2.77211e-05
2.27385e-05
7.48117e-05
7.48139e-05
2.10642e-05
2.27376e-05
2.77285e-05
2.23333e-05
2.10638e-05
2.27384e-05
2.77224e-05
3.83514e-05
3.83562e-05
2.16497e-05
3.83474e-05
3.83522e-05
2.82986e-05
6.95272e-05
2.8302e-05
6.9525e-05
7.48158e-05
7.48176e-05
2.83003e-05
6.95314e-05
2.83035e-05
6.953e-05
2.31297e-05
2.31295e-05
2.31294e-05
2.31281e-05
2.3129e-05
2.31288e-05
2.31287e-05
2.10639e-05
2.77276e-05
2.27377e-05
2.23335e-05
2.10635e-05
2.77211e-05
2.27385e-05
7.48116e-05
7.4814e-05
2.10642e-05
2.27376e-05
2.77286e-05
2.23334e-05
2.10638e-05
2.27384e-05
2.77224e-05
3.83514e-05
3.83562e-05
2.16497e-05
3.83474e-05
3.83522e-05
2.82986e-05
6.95263e-05
2.8302e-05
6.95242e-05
7.48161e-05
7.48176e-05
2.83003e-05
6.95321e-05
2.83035e-05
6.95306e-05
2.31297e-05
2.31295e-05
2.31294e-05
2.31281e-05
2.3129e-05
2.31288e-05
2.31287e-05
2.10638e-05
2.77276e-05
2.27377e-05
2.23335e-05
2.10634e-05
2.77211e-05
2.27385e-05
7.48115e-05
7.48139e-05
2.10642e-05
2.27376e-05
2.77285e-05
2.23334e-05
2.10638e-05
2.27384e-05
2.77224e-05
3.83514e-05
3.83562e-05
2.16496e-05
3.83474e-05
3.83522e-05
2.82986e-05
6.95257e-05
2.8302e-05
6.95238e-05
7.48161e-05
7.48179e-05
2.83003e-05
6.95325e-05
2.83035e-05
6.95309e-05
2.31297e-05
2.31295e-05
2.31294e-05
2.31281e-05
2.3129e-05
2.31288e-05
2.31287e-05
2.10638e-05
2.77276e-05
2.27377e-05
2.23335e-05
2.10635e-05
2.77211e-05
2.27385e-05
7.48115e-05
7.4814e-05
2.10642e-05
2.27376e-05
2.77285e-05
2.23333e-05
2.10638e-05
2.27384e-05
2.77224e-05
3.83514e-05
3.83562e-05
2.16497e-05
3.83474e-05
3.83522e-05
2.82986e-05
6.95254e-05
2.8302e-05
6.95235e-05
7.48163e-05
7.4818e-05
2.83004e-05
6.95327e-05
2.83035e-05
6.95311e-05
2.31297e-05
2.31295e-05
2.31294e-05
2.31281e-05
2.31289e-05
2.31288e-05
2.31287e-05
2.10638e-05
2.77276e-05
2.27376e-05
2.23335e-05
2.10635e-05
2.77212e-05
2.27385e-05
7.48113e-05
7.48136e-05
2.10642e-05
2.27376e-05
2.77285e-05
2.23333e-05
2.10638e-05
2.27384e-05
2.77224e-05
3.83515e-05
3.83562e-05
2.16497e-05
3.83474e-05
3.83522e-05
2.82986e-05
6.95252e-05
2.83021e-05
6.95232e-05
7.48164e-05
7.48181e-05
2.83004e-05
6.95329e-05
2.83036e-05
6.95312e-05
2.31297e-05
2.31295e-05
2.31294e-05
2.31281e-05
2.3129e-05
2.31288e-05
2.31287e-05
2.10638e-05
2.77276e-05
2.27376e-05
2.23335e-05
2.10635e-05
2.77212e-05
2.27385e-05
7.48113e-05
7.48137e-05
2.10642e-05
2.27376e-05
2.77286e-05
2.23333e-05
2.10638e-05
2.27384e-05
2.77224e-05
3.83515e-05
3.83562e-05
2.16497e-05
3.83474e-05
3.83522e-05
2.82986e-05
6.9525e-05
2.83021e-05
6.95231e-05
7.48165e-05
7.48181e-05
2.83004e-05
6.9533e-05
2.83036e-05
6.95313e-05
2.31297e-05
2.31295e-05
2.31294e-05
2.31282e-05
2.3129e-05
2.31288e-05
2.31287e-05
2.10639e-05
2.77276e-05
2.27376e-05
2.23336e-05
2.10635e-05
2.77212e-05
2.27385e-05
7.48117e-05
7.48139e-05
2.10642e-05
2.27375e-05
2.77286e-05
2.23333e-05
2.10638e-05
2.27384e-05
2.77224e-05
3.83515e-05
3.83563e-05
2.16497e-05
3.83474e-05
3.83522e-05
2.82986e-05
6.95249e-05
2.83021e-05
6.95231e-05
7.48165e-05
7.48181e-05
2.83004e-05
6.95331e-05
2.83036e-05
6.95314e-05
2.31297e-05
2.31295e-05
2.31294e-05
2.31282e-05
2.31289e-05
2.31288e-05
2.31287e-05
2.10638e-05
2.77276e-05
2.27376e-05
2.23335e-05
2.10635e-05
2.77211e-05
2.27385e-05
7.48117e-05
7.48141e-05
2.10642e-05
2.27376e-05
2.77285e-05
2.23333e-05
2.10638e-05
2.27384e-05
2.77224e-05
3.83515e-05
3.83563e-05
2.16497e-05
3.83474e-05
3.83522e-05
2.82986e-05
6.95249e-05
2.83021e-05
6.9523e-05
7.48165e-05
7.48182e-05
2.83004e-05
6.95331e-05
2.83036e-05
6.95314e-05
2.31297e-05
2.31295e-05
2.31294e-05
2.31281e-05
2.31289e-05
2.31288e-05
2.31287e-05
2.10638e-05
2.77276e-05
2.27377e-05
2.23335e-05
2.10635e-05
2.77211e-05
2.27385e-05
7.48116e-05
7.4814e-05
2.10642e-05
2.27376e-05
2.77285e-05
2.23333e-05
2.10638e-05
2.27384e-05
2.77224e-05
3.83515e-05
3.83562e-05
2.16497e-05
3.83474e-05
3.83522e-05
2.83005e-05
6.95249e-05
2.8302e-05
6.95231e-05
7.48165e-05
7.48181e-05
2.83027e-05
6.95332e-05
2.83036e-05
6.95315e-05
2.31296e-05
2.31293e-05
2.31292e-05
2.1065e-05
2.77276e-05
2.27376e-05
2.23331e-05
2.10635e-05
2.77211e-05
2.27384e-05
7.48113e-05
2.27382e-05
2.77286e-05
2.10638e-05
3.83515e-05
3.83563e-05
3.73742e-05
3.72959e-05
3.72959e-05
5.31145e-05
3.71931e-05
5.31164e-05
3.71931e-05
3.70929e-05
3.72506e-05
3.72514e-05
3.71762e-05
3.71762e-05
3.73702e-05
3.73777e-05
3.73044e-05
3.73768e-05
3.73702e-05
3.73777e-05
3.73044e-05
3.73768e-05
3.71731e-05
3.94119e-05
3.71676e-05
3.67257e-05
3.71731e-05
3.94118e-05
3.71676e-05
3.67258e-05
3.70956e-05
3.71022e-05
3.60228e-05
3.64211e-05
3.71634e-05
3.71109e-05
3.63058e-05
3.70956e-05
3.71022e-05
3.60233e-05
3.64211e-05
3.71634e-05
3.71109e-05
3.63059e-05
3.73742e-05
3.72959e-05
3.72959e-05
5.31146e-05
3.71931e-05
3.70929e-05
3.72519e-05
3.72499e-05
3.71762e-05
3.71762e-05
5.31162e-05
3.71932e-05
3.73702e-05
3.73777e-05
3.73044e-05
3.73768e-05
3.73702e-05
3.73777e-05
3.73768e-05
3.73044e-05
3.71731e-05
3.94123e-05
3.71676e-05
3.6726e-05
3.70956e-05
3.71022e-05
3.6023e-05
3.64211e-05
3.71634e-05
3.71109e-05
3.63059e-05
3.71731e-05
3.94126e-05
3.71676e-05
3.67257e-05
3.70956e-05
3.71022e-05
3.64211e-05
3.60229e-05
3.71109e-05
3.71634e-05
3.63059e-05
3.73773e-05
3.73765e-05
3.7377e-05
3.7377e-05
3.73773e-05
3.73765e-05
3.7377e-05
3.7377e-05
3.73773e-05
3.73765e-05
3.7377e-05
3.7377e-05
3.71134e-05
3.71099e-05
3.64241e-05
3.64241e-05
3.71125e-05
3.71125e-05
3.64261e-05
3.71134e-05
3.71099e-05
3.64241e-05
3.64241e-05
3.71125e-05
3.71125e-05
3.64261e-05
3.71134e-05
3.71099e-05
3.64241e-05
3.64241e-05
3.71125e-05
3.71125e-05
3.64261e-05
3.71134e-05
3.71099e-05
3.64241e-05
3.64241e-05
3.71125e-05
3.71125e-05
3.64261e-05
3.73702e-05
3.73777e-05
3.73768e-05
3.73044e-05
3.70956e-05
3.71022e-05
3.60227e-05
3.64211e-05
3.71634e-05
3.71109e-05
3.63059e-05
3.71731e-05
3.9412e-05
3.71676e-05
3.67259e-05
3.70956e-05
3.71022e-05
3.64211e-05
3.60233e-05
3.71109e-05
3.71634e-05
3.63059e-05
3.71731e-05
3.94126e-05
3.71676e-05
3.67256e-05
3.73742e-05
3.72959e-05
3.72959e-05
5.31168e-05
3.71931e-05
3.70929e-05
3.72509e-05
3.72517e-05
3.71762e-05
3.71762e-05
5.31169e-05
3.71931e-05
3.73702e-05
3.73777e-05
3.73768e-05
3.73044e-05
3.70956e-05
3.71022e-05
3.64211e-05
3.60233e-05
3.71109e-05
3.71634e-05
3.63059e-05
3.70956e-05
3.71022e-05
3.64211e-05
3.60233e-05
3.71109e-05
3.71634e-05
3.63059e-05
3.71731e-05
3.94125e-05
3.71676e-05
3.67257e-05
3.71731e-05
3.94125e-05
3.71676e-05
3.67259e-05
3.70929e-05
3.72515e-05
3.7252e-05
3.71762e-05
3.71762e-05
5.31167e-05
3.71931e-05
5.31166e-05
3.71931e-05
5.51075e-05
6.48878e-05
5.51093e-05
6.48907e-05
3.65853e-05
3.65858e-05
3.52793e-05
3.40816e-05
3.40815e-05
7.4721e-05
6.76963e-05
7.47248e-05
6.77001e-05
3.4973e-05
3.20436e-05
3.20433e-05
3.34611e-05
3.34605e-05
3.58887e-05
4.08701e-05
3.66008e-05
4.51305e-05
3.52766e-05
3.56338e-05
3.58928e-05
3.53772e-05
3.60466e-05
3.4232e-05
3.53822e-05
3.52767e-05
3.56333e-05
3.58928e-05
3.53772e-05
3.60466e-05
3.42329e-05
3.53822e-05
3.56338e-05
5.01964e-05
4.64556e-05
3.48972e-05
3.56341e-05
5.01954e-05
4.64552e-05
3.48978e-05
3.49984e-05
3.48728e-05
3.2715e-05
3.44021e-05
3.38519e-05
3.48859e-05
3.41806e-05
3.49984e-05
3.48728e-05
3.2716e-05
3.44021e-05
3.38507e-05
3.48859e-05
3.41808e-05
3.65848e-05
3.65866e-05
3.52793e-05
3.40826e-05
3.40794e-05
5.51087e-05
6.48901e-05
7.47217e-05
6.76987e-05
3.4973e-05
3.20445e-05
3.20411e-05
3.34596e-05
3.34629e-05
7.47235e-05
6.7698e-05
3.52768e-05
3.56336e-05
3.58928e-05
3.53772e-05
3.60465e-05
3.42321e-05
3.53822e-05
3.5889e-05
4.08711e-05
3.66004e-05
4.51331e-05
3.52767e-05
3.58928e-05
3.56338e-05
3.53772e-05
3.60466e-05
3.53823e-05
3.4232e-05
3.56334e-05
5.01963e-05
4.64551e-05
3.4899e-05
3.49983e-05
3.48728e-05
3.27149e-05
3.44021e-05
3.38511e-05
3.48859e-05
3.41811e-05
3.56334e-05
5.01982e-05
4.64569e-05
3.48984e-05
3.49983e-05
3.48728e-05
3.44021e-05
3.27146e-05
3.48859e-05
3.38515e-05
3.41809e-05
3.58889e-05
4.08688e-05
3.66007e-05
4.51324e-05
3.52767e-05
3.58928e-05
3.56334e-05
3.53772e-05
3.60465e-05
3.53823e-05
3.42329e-05
3.58889e-05
4.08717e-05
3.66003e-05
4.51322e-05
3.49984e-05
3.48728e-05
3.27141e-05
3.44022e-05
3.38516e-05
3.48859e-05
3.41809e-05
3.5634e-05
5.0196e-05
4.6453e-05
3.48979e-05
3.49984e-05
3.48728e-05
3.44021e-05
3.2716e-05
3.48859e-05
3.38506e-05
3.41807e-05
3.56335e-05
5.01968e-05
4.64574e-05
3.48977e-05
3.65857e-05
3.65847e-05
3.52793e-05
3.40806e-05
3.40821e-05
5.51097e-05
6.48895e-05
7.47258e-05
6.76996e-05
3.4973e-05
3.20421e-05
3.20452e-05
3.34613e-05
3.34599e-05
7.47233e-05
6.77001e-05
3.52769e-05
3.58928e-05
3.56333e-05
3.53772e-05
3.60465e-05
3.53823e-05
3.42327e-05
3.58897e-05
4.0871e-05
3.66002e-05
4.51327e-05
3.589e-05
4.08701e-05
3.66005e-05
4.51316e-05
3.49982e-05
3.48728e-05
3.44022e-05
3.27158e-05
3.48859e-05
3.38509e-05
3.4181e-05
3.49982e-05
3.48728e-05
3.44021e-05
3.27157e-05
3.48859e-05
3.38504e-05
3.41811e-05
3.56326e-05
5.01977e-05
4.6457e-05
3.48988e-05
3.56329e-05
5.01972e-05
4.6455e-05
3.48991e-05
5.51093e-05
6.48893e-05
5.51093e-05
6.489e-05
3.4973e-05
3.20449e-05
3.20437e-05
3.34594e-05
3.34596e-05
7.47223e-05
6.76994e-05
7.47239e-05
6.77009e-05
7.65593e-05
8.08508e-05
7.65635e-05
8.08551e-05
3.17092e-05
3.17073e-05
3.32641e-05
3.09272e-05
3.09273e-05
8.39993e-05
8.18622e-05
8.4003e-05
8.18657e-05
3.29545e-05
3.03086e-05
3.03087e-05
3.07396e-05
3.07361e-05
3.39736e-05
5.13546e-05
3.46745e-05
5.46057e-05
3.30547e-05
3.24536e-05
3.39297e-05
3.34085e-05
3.38943e-05
3.15591e-05
3.34678e-05
3.30549e-05
3.24523e-05
3.39297e-05
3.34085e-05
3.38944e-05
3.15603e-05
3.34678e-05
3.37775e-05
5.83502e-05
5.55994e-05
3.30895e-05
3.37775e-05
5.83506e-05
5.55989e-05
3.30901e-05
3.27672e-05
3.2935e-05
3.06316e-05
3.25727e-05
3.13712e-05
3.30157e-05
3.19188e-05
3.27673e-05
3.29349e-05
3.06324e-05
3.25727e-05
3.13695e-05
3.30157e-05
3.19191e-05
3.17068e-05
3.17103e-05
3.32642e-05
3.09284e-05
3.09238e-05
7.6561e-05
8.08529e-05
8.40002e-05
8.18642e-05
3.29545e-05
3.03096e-05
3.0306e-05
3.07363e-05
3.07405e-05
8.40012e-05
8.18637e-05
3.30554e-05
3.24527e-05
3.39297e-05
3.34086e-05
3.3894e-05
3.15595e-05
3.34678e-05
3.3976e-05
5.13567e-05
3.46734e-05
5.46088e-05
3.30551e-05
3.39297e-05
3.24534e-05
3.34084e-05
3.3894e-05
3.34678e-05
3.15585e-05
3.37741e-05
5.83512e-05
5.56007e-05
3.30937e-05
3.27668e-05
3.2935e-05
3.06314e-05
3.25727e-05
3.13696e-05
3.30157e-05
3.19195e-05
3.37742e-05
5.83537e-05
5.56013e-05
3.30931e-05
3.27667e-05
3.29349e-05
3.25727e-05
3.0631e-05
3.30157e-05
3.1371e-05
3.19192e-05
3.3974e-05
5.13537e-05
3.46743e-05
5.46057e-05
3.30548e-05
3.39297e-05
3.24525e-05
3.34085e-05
3.38943e-05
3.34678e-05
3.15607e-05
3.39732e-05
5.13565e-05
3.46744e-05
5.46069e-05
3.27673e-05
3.2935e-05
3.06309e-05
3.25728e-05
3.13708e-05
3.30156e-05
3.19191e-05
3.3777e-05
5.83509e-05
5.55982e-05