/*--------------------------------*- C++ -*----------------------------------*\
| =========                 |                                                 |
| \\      /  F ield         | OpenFOAM: The Open Source CFD Toolbox           |
|  \\    /   O peration     | Version:  v1912                                 |
|   \\  /    A nd           | Website:  www.openfoam.com                      |
|    \\/     M anipulation  |                                                 |
\*---------------------------------------------------------------------------*/
FoamFile
{
    version     2.0;
    format      ascii;
    class       volScalarField;
    location    "40";
    object      nut;
}
// * * * * * * * * * * * * * * * * * * * * * * * * * * * * * * * * * * * * * //

dimensions      [0 2 -1 0 0 0 0];


internalField   nonuniform List<scalar> 
57100
(
0.000233972
0.000233114
0.000233114
0.000233423
0.000232531
0.000227796
0.000227795
0.000223861
0.000230513
0.000220312
0.000220309
0.000209104
0.000227793
0.000211656
0.000211651
0.000193786
0.000224421
0.000202637
0.000202631
0.000179718
0.000220565
0.000193794
0.000193787
0.000167373
0.000216291
0.000185271
0.000185261
0.000156597
0.00021187
0.000177425
0.000177415
0.000147481
0.000207396
0.000170789
0.000170779
0.000140268
0.000206322
0.000169488
0.000169478
0.000139425
0.000206904
0.000170329
0.000170319
0.000140565
0.000207191
0.000170737
0.000170728
0.000141154
0.000207223
0.000170848
0.000170839
0.000141308
0.000207251
0.000170889
0.000170879
0.000141374
0.000207273
0.000170911
0.000170901
0.000141408
0.000207276
0.00017093
0.00017092
0.000141416
0.000207275
0.000170946
0.000170937
0.000141415
0.000207276
0.000170947
0.000170937
0.000141415
0.000207276
0.000170947
0.000170937
0.000141413
0.000207275
0.000170947
0.000170937
0.000141415
0.000207275
0.000170947
0.000170937
0.000141415
0.000207275
0.000170948
0.000170938
0.000141415
0.000207276
0.000170948
0.000170938
0.000141413
0.000207276
0.000170947
0.000170937
0.000141415
0.000207276
0.000170946
0.000170936
0.000141415
0.000207276
0.000170946
0.000170937
0.000141415
0.000207276
0.000170948
0.000170937
0.000141415
0.000207277
0.000170947
0.000170937
0.000141415
0.000207277
0.000170946
0.000170937
0.000141415
0.000207277
0.000170946
0.00017094
0.000141414
0.000234266
0.000234448
0.000234449
0.000234267
0.000234449
0.000234449
0.000234274
0.000234274
0.000234274
0.000234274
0.000234448
0.000234448
0.000234266
0.000234448
0.000234449
0.000234266
0.000233423
0.000226205
0.000233113
0.000233111
0.000229353
0.000229348
0.000233423
0.000226206
0.000233111
0.000233111
0.000229351
0.000229347
0.000233113
0.000229356
0.000229352
0.000233424
0.000226203
0.000233112
0.000229355
0.00022935
0.000226203
0.000223861
0.000212237
0.000227793
0.000227788
0.000222322
0.000222317
0.000223862
0.000212241
0.00022779
0.000227786
0.000222323
0.000222314
0.000227792
0.000222329
0.000222321
0.00022386
0.000212234
0.000227791
0.000222326
0.000222322
0.000212235
0.000209106
0.000197073
0.000220304
0.000220299
0.000213869
0.000213864
0.000209107
0.000197079
0.000220305
0.000220295
0.000213873
0.000213859
0.000220302
0.00021388
0.000213867
0.000209102
0.00019707
0.000220304
0.000213876
0.000213872
0.00019707
0.000193789
0.000182898
0.000211644
0.000211639
0.000204887
0.000204882
0.000193792
0.000182904
0.000211649
0.000211634
0.000204895
0.000204876
0.000211642
0.000204902
0.000204884
0.000193785
0.000182894
0.000211648
0.000204896
0.000204894
0.000182894
0.000179721
0.000170296
0.00020262
0.000202615
0.000195961
0.000195956
0.000179726
0.000170302
0.000202629
0.000202609
0.000195973
0.000195949
0.000202617
0.00019598
0.000195958
0.000179717
0.000170291
0.000202628
0.000195974
0.000195971
0.000170292
0.000167377
0.000159253
0.000193776
0.00019377
0.000187291
0.000187286
0.000167382
0.00015926
0.000193788
0.000193764
0.000187306
0.000187279
0.000193774
0.000187313
0.000187291
0.000167372
0.000159248
0.000193787
0.000187305
0.000187305
0.000159249
0.000156601
0.000149847
0.000185244
0.000185239
0.000179372
0.000179369
0.000156607
0.000149854
0.00018526
0.000185232
0.000179392
0.000179361
0.000185244
0.000179402
0.000179372
0.000156596
0.000149842
0.000185259
0.000179391
0.000179389
0.000149842
0.000147487
0.000142095
0.0001774
0.000177397
0.000172
0.000171994
0.000147493
0.000142102
0.000177421
0.000177389
0.00017202
0.000171986
0.0001774
0.000172025
0.000171997
0.000147482
0.000142089
0.000177418
0.000172015
0.000172019
0.000142085
0.000140277
0.000139759
0.000170758
0.000170753
0.000169355
0.000169348
0.000140281
0.000139762
0.000170778
0.000170745
0.000169374
0.000169339
0.000170757
0.000169378
0.000169353
0.000140271
0.000139749
0.000170779
0.000169369
0.000169375
0.000139739
0.000139441
0.000140719
0.000169467
0.000169459
0.000170168
0.000170163
0.000139442
0.000140727
0.000169485
0.000169449
0.000170187
0.000170154
0.000169464
0.000170201
0.000170168
0.000139431
0.000140713
0.000169487
0.000170192
0.000170191
0.000140708
0.000140564
0.000141318
0.000170321
0.000170315
0.000170665
0.000170655
0.00014057
0.000141322
0.000170341
0.000170306
0.000170685
0.000170645
0.00017032
0.00017069
0.000170665
0.000140557
0.000141308
0.000170343
0.00017068
0.000170689
0.000141332
0.000141141
0.000141475
0.000170724
0.000170714
0.000170808
0.000170799
0.000141144
0.000141477
0.000170744
0.000170704
0.000170828
0.000170789
0.000170725
0.000170837
0.000170812
0.000141131
0.000141464
0.000170749
0.000170827
0.000170836
0.000141491
0.000141296
0.000141535
0.000170826
0.000170818
0.000170854
0.000170846
0.000141297
0.000141538
0.000170846
0.000170809
0.000170874
0.000170837
0.000170831
0.000170884
0.000170861
0.000141285
0.000141525
0.000170855
0.000170874
0.000170884
0.000141557
0.000141359
0.000141569
0.000170862
0.000170854
0.00017088
0.000170873
0.000141361
0.000141571
0.000170881
0.000170845
0.0001709
0.000170864
0.00017087
0.000170908
0.000170888
0.000141349
0.000141558
0.000170893
0.000170898
0.000170912
0.000141594
0.000141392
0.000141603
0.000170889
0.000170881
0.000170907
0.000170903
0.000141394
0.000141605
0.000170908
0.000170872
0.000170928
0.000170893
0.000170899
0.000170925
0.000170916
0.000141382
0.000141592
0.000170923
0.000170915
0.00017094
0.000141608
0.000141425
0.000141612
0.000170923
0.000170919
0.000170921
0.000170918
0.000141428
0.000141614
0.000170944
0.000170909
0.000170941
0.000170908
0.000170928
0.000170946
0.000170917
0.000141416
0.000141601
0.000170952
0.000170937
0.000170941
0.000141608
0.000141429
0.000141612
0.000170925
0.000170923
0.000170919
0.000170918
0.000141432
0.000141615
0.000170945
0.000170912
0.00017094
0.000170907
0.000170922
0.000170948
0.000170918
0.00014142
0.000141602
0.000170946
0.000170939
0.000170942
0.000141608
0.000141429
0.000141612
0.000170924
0.000170923
0.000170919
0.000170919
0.000141434
0.000141616
0.000170945
0.000170912
0.00017094
0.000170907
0.000170923
0.000170948
0.000170918
0.000141421
0.000141602
0.000170947
0.000170938
0.000170941
0.000141606
0.00014143
0.000141612
0.000170924
0.000170924
0.000170918
0.000170918
0.000141434
0.000141616
0.000170945
0.000170911
0.00017094
0.000170907
0.000170923
0.000170948
0.000170918
0.00014142
0.000141602
0.000170946
0.000170937
0.000170942
0.000141607
0.00014143
0.000141611
0.000170923
0.000170922
0.000170919
0.000170917
0.000141434
0.000141616
0.000170945
0.000170911
0.00017094
0.000170906
0.000170923
0.000170948
0.000170918
0.00014142
0.000141602
0.000170947
0.000170938
0.000170942
0.000141607
0.000141429
0.000141611
0.000170925
0.000170922
0.00017092
0.000170917
0.000141435
0.000141617
0.000170945
0.000170911
0.00017094
0.000170906
0.000170922
0.000170948
0.000170918
0.000141421
0.000141602
0.000170946
0.000170938
0.000170942
0.000141608
0.000141429
0.000141612
0.000170926
0.000170922
0.000170921
0.000170917
0.000141434
0.000141617
0.000170946
0.000170911
0.000170941
0.000170906
0.000170922
0.000170949
0.000170918
0.000141421
0.000141602
0.000170947
0.00017094
0.000170941
0.000141606
0.000141429
0.000141612
0.000170927
0.000170922
0.000170922
0.000170916
0.000141435
0.000141617
0.000170946
0.000170911
0.000170941
0.000170906
0.000170922
0.000170948
0.000170918
0.000141421
0.000141602
0.000170946
0.000170939
0.000170941
0.000141607
0.00014143
0.000141612
0.000170927
0.000170921
0.000170922
0.000170916
0.000141434
0.000141617
0.000170947
0.000170911
0.000170942
0.000170906
0.000170922
0.000170948
0.000170918
0.000141421
0.000141602
0.000170946
0.000170938
0.000170941
0.000141608
0.00014143
0.000141612
0.000170927
0.000170921
0.000170922
0.000170916
0.000141434
0.000141616
0.000170947
0.000170911
0.000170942
0.000170906
0.000170923
0.000170947
0.000170918
0.00014142
0.000141602
0.000170945
0.000170938
0.00017094
0.000141607
0.000141429
0.000141612
0.000170927
0.000170921
0.000170922
0.000170916
0.000141434
0.000141616
0.000170947
0.000170911
0.000170942
0.000170906
0.000170923
0.000170949
0.000170918
0.00014142
0.000141602
0.000170945
0.000170938
0.00017094
0.000141607
0.00014143
0.000141612
0.000170927
0.000170921
0.000170922
0.000170916
0.000141434
0.000141616
0.000170947
0.000170911
0.000170943
0.000170907
0.000170922
0.000170949
0.000170918
0.00014142
0.000141602
0.000170944
0.000170938
0.000170939
0.000141607
0.00014143
0.000141612
0.000170927
0.000170921
0.000170922
0.000170916
0.000141433
0.000141615
0.000170948
0.000170911
0.000170943
0.000170907
0.000170922
0.000170947
0.000170918
0.000141421
0.000141602
0.000170944
0.000170939
0.000170939
0.000141607
0.00014143
0.000141612
0.000170927
0.000170921
0.000170922
0.000170916
0.000141433
0.000141616
0.000170948
0.000170911
0.000170943
0.000170906
0.000170923
0.000170948
0.000170918
0.000141421
0.000141602
0.000170944
0.000170939
0.000170939
0.000141607
0.00014143
0.000170926
0.00017092
0.000141433
0.000170947
0.00017091
0.000170921
0.000141421
0.000170942
0.00023473
0.000234746
0.000234729
0.000234729
0.000235119
0.000234798
0.000234702
0.000234727
0.000235119
0.000234798
0.000234727
0.000234702
0.000234868
0.000233566
0.000233566
0.00010455
3.87405e-05
0.000129273
3.98185e-05
2.1682e-05
2.28301e-05
0.000104539
3.87365e-05
0.000129272
3.98149e-05
0.000233972
0.000233972
0.000233972
0.000232934
0.000232934
0.000232934
0.000232934
0.000206163
9.34508e-05
0.000233969
0.000231987
0.000222644
8.71083e-05
0.000233611
2.16809e-05
2.28293e-05
0.000206155
0.000233969
9.3451e-05
0.000231987
0.000222653
0.000233611
8.71145e-05
4.77983e-05
4.77866e-05
0.000231347
4.39071e-05
4.38978e-05
7.25206e-05
4.24345e-05
8.13714e-05
4.37558e-05
2.47776e-05
2.54619e-05
7.25116e-05
4.2431e-05
8.13673e-05
4.3752e-05
0.000232531
0.000232531
0.000232531
0.000231081
0.000231081
0.000231081
0.000231081
0.000167435
7.94483e-05
0.00023208
0.00022609
0.000180139
7.45617e-05
0.000231375
2.47759e-05
2.54604e-05
0.000167433
0.000232079
7.94421e-05
0.000226088
0.000180134
0.000231373
7.45652e-05
3.90867e-05
3.90765e-05
0.000219598
3.65222e-05
3.65114e-05
5.62339e-05
4.5548e-05
6.10652e-05
4.64056e-05
2.60151e-05
2.61171e-05
5.62405e-05
4.55453e-05
6.10604e-05
4.64026e-05
0.000230513
0.000230512
0.000230512
0.000228537
0.000228537
0.000228535
0.000228536
0.00013852
6.74863e-05
0.000228637
0.000218224
0.000147958
6.35872e-05
0.00022753
2.60129e-05
2.61149e-05
0.000138516
0.000228637
6.74802e-05
0.000218221
0.000147948
0.000227528
6.35835e-05
3.31402e-05
3.31316e-05
0.000204624
3.19303e-05
3.19212e-05
4.69135e-05
4.75023e-05
4.98535e-05
4.79983e-05
2.60501e-05
2.59356e-05
4.6913e-05
4.7499e-05
4.98499e-05
4.79955e-05
0.000227793
0.000227792
0.000227793
0.000225325
0.000225326
0.000225323
0.000225324
0.000117464
5.82699e-05
0.000223707
0.000209417
0.000124476
5.55469e-05
0.000222298
2.60477e-05
2.59335e-05
0.00011746
0.000223705
5.82682e-05
0.000209412
0.000124469
0.000222295
5.55436e-05
3.05535e-05
3.05456e-05
0.000189798
3.02431e-05
3.02353e-05
4.13824e-05
4.85871e-05
4.31968e-05
4.88357e-05
2.56783e-05
2.55157e-05
4.13819e-05
4.85836e-05
4.31971e-05
4.88327e-05
0.000224422
0.000224419
0.00022442
0.000221576
0.000221575
0.000221572
0.000221573
0.000102038
5.19301e-05
0.000217749
0.000200389
0.000107237
5.01244e-05
0.000216153
2.56758e-05
2.55136e-05
0.000102035
0.000217747
5.19286e-05
0.000200383
0.000107232
0.000216149
5.01216e-05
3.01392e-05
3.01322e-05
0.000176382
3.03194e-05
3.03123e-05
3.81169e-05
4.90982e-05
3.92005e-05
4.91985e-05
2.52409e-05
2.5089e-05
3.81163e-05
4.90949e-05
3.92004e-05
4.91956e-05
0.000220566
0.000220562
0.000220564
0.000217347
0.000217348
0.000217344
0.000217346
9.04457e-05
4.77802e-05
0.000211266
0.000191607
9.4308e-05
4.66516e-05
0.000209585
2.52384e-05
2.50871e-05
9.04426e-05
0.000211263
4.77791e-05
0.0001916
9.43032e-05
0.00020958
4.66492e-05
3.09776e-05
3.09703e-05
0.000164593
3.14569e-05
3.14506e-05
3.63627e-05
4.92776e-05
3.69031e-05
4.93036e-05
2.48533e-05
2.47282e-05
3.6364e-05
4.92744e-05
3.69026e-05
4.93005e-05
0.000216294
0.000216289
0.000216291
0.000213077
0.000213076
0.00021307
0.000213072
8.16154e-05
4.52044e-05
0.000204537
0.000183298
8.45098e-05
4.45931e-05
0.000202935
2.4851e-05
2.47262e-05
8.16137e-05
0.000204533
4.5202e-05
0.000183288
8.45047e-05
0.000202929
4.45902e-05
3.25325e-05
3.25275e-05
0.000154343
3.32515e-05
3.32492e-05
3.58847e-05
4.92873e-05
3.58869e-05
4.92588e-05
2.45466e-05
2.44832e-05
3.58787e-05
4.92841e-05
3.58842e-05
4.92559e-05
0.000211871
0.000211865
0.000211868
0.000208281
0.000208283
0.000208277
0.000208279
7.52068e-05
4.38807e-05
0.000198028
0.000175469
7.71851e-05
4.38045e-05
0.000196293
2.45445e-05
2.44813e-05
7.52019e-05
0.000198023
4.38775e-05
0.000175458
7.71819e-05
0.000196287
4.38004e-05
3.45508e-05
3.45475e-05
0.000145713
3.53579e-05
3.53572e-05
3.69973e-05
4.92279e-05
3.61869e-05
4.92442e-05
2.4447e-05
2.44516e-05
3.69937e-05
4.92249e-05
3.61948e-05
4.92413e-05
0.000207402
0.000207395
0.000207398
0.000206295
0.000206294
0.000206288
0.000206291
7.29137e-05
4.37092e-05
0.00019193
0.000169963
7.27396e-05
4.39497e-05
0.000191127
2.44448e-05
2.44494e-05
7.2913e-05
0.000191925
4.37074e-05
0.000169953
7.27392e-05
0.000191121
4.39501e-05
3.65124e-05
3.65098e-05
0.000140064
3.71424e-05
3.71408e-05
3.82758e-05
4.93175e-05
3.79502e-05
4.93423e-05
2.44681e-05
2.44753e-05
3.82824e-05
4.93141e-05
3.79534e-05
4.93392e-05
0.000206321
0.000206314
0.000206318
0.000206741
0.000206746
0.000206739
0.000206742
7.4288e-05
4.48063e-05
0.000190534
0.000169735
7.37693e-05
4.53111e-05
0.000190666
2.44655e-05
2.44726e-05
7.4292e-05
0.000190531
4.48099e-05
0.000169726
7.37675e-05
0.000190661
4.53144e-05
3.80913e-05
3.80871e-05
0.000140139
3.84391e-05
3.84368e-05
3.86379e-05
4.93643e-05
3.85805e-05
4.93658e-05
2.44793e-05
2.44806e-05
3.86439e-05
4.9361e-05
3.8582e-05
4.93625e-05
0.00020691
0.000206903
0.000206907
0.00020718
0.000207158
0.000207151
0.000207156
7.50311e-05
4.58904e-05
0.000191237
0.000170504
7.48625e-05
4.60222e-05
0.000191364
2.44767e-05
2.44779e-05
7.50345e-05
0.000191234
4.58896e-05
0.000170494
7.48634e-05
0.00019136
4.60256e-05
3.87594e-05
3.87562e-05
0.00014112
3.88323e-05
3.88296e-05
3.86794e-05
4.93674e-05
3.86635e-05
4.93671e-05
2.44809e-05
2.44813e-05
3.86821e-05
4.9364e-05
3.86675e-05
4.93635e-05
0.000207178
0.000207171
0.000207175
0.000207215
0.000207203
0.000207196
0.000207201
7.51927e-05
4.60724e-05
0.00019147
0.000170793
7.51379e-05
4.60975e-05
0.000191499
2.44781e-05
2.44785e-05
7.51946e-05
0.000191467
4.60762e-05
0.000170783
7.51401e-05
0.000191496
4.61007e-05
3.88353e-05
3.88326e-05
0.000141439
3.88363e-05
3.88336e-05
3.87006e-05
4.9368e-05
3.86903e-05
4.93676e-05
2.44811e-05
2.44815e-05
3.87047e-05
4.93644e-05
3.86939e-05
4.93639e-05
0.000207213
0.000207207
0.00020721
0.000207245
0.00020724
0.000207233
0.000207238
7.52549e-05
4.61076e-05
0.000191548
0.00017087
7.52175e-05
4.61236e-05
0.000191564
2.44783e-05
2.44787e-05
7.52565e-05
0.000191545
4.6111e-05
0.000170861
7.52189e-05
0.000191561
4.61268e-05
3.88391e-05
3.88363e-05
0.000141532
3.88417e-05
3.88388e-05
3.87095e-05
4.93683e-05
3.8703e-05
4.93678e-05
2.44812e-05
2.44816e-05
3.8715e-05
4.93647e-05
3.87085e-05
4.93641e-05
0.000207252
0.000207245
0.000207249
0.000207271
0.000207267
0.00020726
0.000207265
7.52928e-05
4.61233e-05
0.000191591
0.000170902
7.52593e-05
4.6135e-05
0.000191602
2.44783e-05
2.44787e-05
7.52939e-05
0.000191587
4.6127e-05
0.000170892
7.52606e-05
0.000191598
4.61385e-05
3.88442e-05
3.88414e-05
0.000141585
3.88455e-05
3.88427e-05
3.87112e-05
4.93684e-05
3.87071e-05
4.93678e-05
2.44813e-05
2.44816e-05
3.87173e-05
4.93647e-05
3.87134e-05
4.93641e-05
0.000207275
0.000207268
0.000207273
0.000207275
0.000207274
0.000207267
0.000207271
7.53361e-05
4.61292e-05
0.000191619
0.000170919
7.53018e-05
4.61383e-05
0.000191626
2.44783e-05
2.44788e-05
7.53373e-05
0.000191616
4.6133e-05
0.00017091
7.53018e-05
0.000191623
4.6142e-05
3.88464e-05
3.88437e-05
0.000141612
3.88467e-05
3.88439e-05
3.87111e-05
4.93685e-05
3.8707e-05
4.93679e-05
2.4481e-05
2.44814e-05
3.87172e-05
4.93647e-05
3.87134e-05
4.93641e-05
0.00020728
0.000207273
0.000207275
0.000207276
0.000207277
0.00020727
0.000207271
7.53447e-05
4.613e-05
0.000191639
0.000170939
7.53177e-05
4.61387e-05
0.000191648
2.44784e-05
2.44788e-05
7.53474e-05
0.000191636
4.6134e-05
0.000170928
7.53193e-05
0.000191644
4.61424e-05
3.88467e-05
3.8844e-05
0.000141617
3.88467e-05
3.8844e-05
3.87112e-05
4.93685e-05
3.8707e-05
4.93679e-05
2.44811e-05
2.44814e-05
3.87173e-05
4.93647e-05
3.87134e-05
4.93641e-05
0.00020728
0.000207273
0.000207275
0.000207276
0.000207277
0.00020727
0.000207271
7.5345e-05
4.61301e-05
0.000191641
0.000170955
7.53156e-05
4.61387e-05
0.000191646
2.44784e-05
2.44787e-05
7.53464e-05
0.000191637
4.61342e-05
0.000170947
7.53171e-05
0.000191642
4.61424e-05
3.88467e-05
3.88441e-05
0.000141617
3.88468e-05
3.88441e-05
3.87112e-05
4.93685e-05
3.8707e-05
4.93679e-05
2.44811e-05
2.44814e-05
3.87172e-05
4.93647e-05
3.87134e-05
4.93641e-05
0.00020728
0.000207273
0.000207275
0.000207276
0.000207277
0.00020727
0.000207271
7.53448e-05
4.61301e-05
0.000191641
0.000170952
7.53155e-05
4.61387e-05
0.000191645
2.44784e-05
2.44788e-05
7.53465e-05
0.000191637
4.61341e-05
0.000170942
7.53169e-05
0.000191641
4.61424e-05
3.88467e-05
3.88441e-05
0.000141616
3.88468e-05
3.88441e-05
3.87112e-05
4.93688e-05
3.8707e-05
4.93681e-05
2.44809e-05
2.4481e-05
3.87173e-05
4.93647e-05
3.87134e-05
4.93641e-05
0.00020728
0.000207273
0.000207275
0.000207276
0.000207277
0.00020727
0.000207271
7.53445e-05
4.61301e-05
0.000191641
0.000170952
7.5315e-05
4.61387e-05
0.000191645
2.44784e-05
2.44787e-05
7.53465e-05
0.000191637
4.61341e-05
0.000170942
7.53169e-05
0.000191641
4.61424e-05
3.88467e-05
3.88441e-05
0.000141615
3.88468e-05
3.88441e-05
3.87112e-05
4.93685e-05
3.8707e-05
4.93677e-05
2.4481e-05
2.44815e-05
3.87173e-05
4.93647e-05
3.87135e-05
4.93641e-05
0.00020728
0.000207273
0.000207275
0.000207275
0.000207277
0.00020727
0.000207271
7.53448e-05
4.61301e-05
0.000191641
0.000170952
7.53153e-05
4.61387e-05
0.000191645
2.44784e-05
2.44788e-05
7.53465e-05
0.000191636
4.6134e-05
0.000170942
7.53169e-05
0.000191641
4.61423e-05
3.88467e-05
3.88441e-05
0.000141617
3.88468e-05
3.8844e-05
3.87111e-05
4.93682e-05
3.8707e-05
4.93673e-05
2.44813e-05
2.44817e-05
3.87173e-05
4.9365e-05
3.87135e-05
4.93645e-05
0.00020728
0.000207273
0.000207274
0.000207275
0.000207277
0.00020727
0.000207271
7.53448e-05
4.61302e-05
0.000191641
0.000170952
7.53153e-05
4.61388e-05
0.000191645
2.44784e-05
2.44788e-05
7.53461e-05
0.000191637
4.6134e-05
0.000170942
7.53167e-05
0.000191641
4.61424e-05
3.88467e-05
3.8844e-05
0.000141616
3.88468e-05
3.8844e-05
3.87111e-05
4.93677e-05
3.8707e-05
4.93669e-05
2.44814e-05
2.44817e-05
3.87173e-05
4.93653e-05
3.87135e-05
4.93649e-05
0.00020728
0.000207273
0.000207275
0.000207276
0.000207277
0.00020727
0.000207271
7.53447e-05
4.61302e-05
0.00019164
0.000170953
7.53154e-05
4.61388e-05
0.000191643
2.44784e-05
2.44788e-05
7.53464e-05
0.000191637
4.61341e-05
0.000170943
7.53167e-05
0.000191641
4.61424e-05
3.88467e-05
3.8844e-05
0.000141616
3.88467e-05
3.8844e-05
3.87111e-05
4.93673e-05
3.8707e-05
4.93666e-05
2.44815e-05
2.44817e-05
3.87173e-05
4.93656e-05
3.87135e-05
4.93651e-05
0.00020728
0.000207273
0.000207275
0.000207277
0.000207277
0.00020727
0.000207271
7.53447e-05
4.61302e-05
0.000191638
0.000170953
7.5315e-05
4.61388e-05
0.000191643
2.44784e-05
2.44787e-05
7.53468e-05
0.000191637
4.61341e-05
0.000170943
7.53168e-05
0.000191641
4.61424e-05
3.88467e-05
3.8844e-05
0.000141615
3.88467e-05
3.8844e-05
3.87111e-05
4.93671e-05
3.8707e-05
4.93664e-05
2.44815e-05
2.44818e-05
3.87174e-05
4.93657e-05
3.87135e-05
4.93652e-05
0.00020728
0.000207273
0.000207275
0.000207277
0.000207277
0.00020727
0.000207271
7.53446e-05
4.61302e-05
0.000191639
0.000170952
7.53154e-05
4.61388e-05
0.000191644
2.44784e-05
2.44788e-05
7.53465e-05
0.000191637
4.6134e-05
0.000170943
7.53169e-05
0.000191641
4.61424e-05
3.88467e-05
3.8844e-05
0.000141617
3.88468e-05
3.8844e-05
3.87111e-05
4.9367e-05
3.8707e-05
4.93664e-05
2.44815e-05
2.44818e-05
3.87174e-05
4.93658e-05
3.87136e-05
4.93652e-05
0.00020728
0.000207273
0.000207275
0.000207276
0.000207276
0.00020727
0.000207271
7.53446e-05
4.61303e-05
0.000191639
0.000170952
7.53152e-05
4.61389e-05
0.000191643
2.44783e-05
2.44787e-05
7.53465e-05
0.000191636
4.61341e-05
0.000170942
7.53168e-05
0.000191641
4.61424e-05
3.88467e-05
3.8844e-05
0.000141616
3.88468e-05
3.8844e-05
3.87112e-05
4.93669e-05
3.8707e-05
4.93663e-05
2.44815e-05
2.44818e-05
3.87175e-05
4.93659e-05
3.87136e-05
4.93653e-05
0.00020728
0.000207273
0.000207274
0.000207277
0.000207277
0.00020727
0.000207271
7.53444e-05
4.61303e-05
0.000191637
0.000170951
7.53152e-05
4.61389e-05
0.000191642
2.44783e-05
2.44787e-05
7.53465e-05
0.000191636
4.61341e-05
0.000170942
7.53168e-05
0.00019164
4.61424e-05
3.88467e-05
3.88441e-05
0.000141616
3.88468e-05
3.88441e-05
3.87112e-05
4.93669e-05
3.8707e-05
4.93662e-05
2.44815e-05
2.44818e-05
3.87175e-05
4.93659e-05
3.87137e-05
4.93653e-05
0.00020728
0.000207273
0.000207274
0.000207277
0.000207277
0.00020727
0.000207271
7.53448e-05
4.61303e-05
0.000191639
0.000170954
7.53153e-05
4.61389e-05
0.000191643
2.44784e-05
2.44787e-05
7.5346e-05
0.000191635
4.61341e-05
0.000170942
7.53165e-05
0.00019164
4.61424e-05
3.88468e-05
3.88441e-05
0.000141616
3.88468e-05
3.88441e-05
3.87112e-05
4.93668e-05
3.87071e-05
4.93662e-05
2.44815e-05
2.44818e-05
3.87175e-05
4.93659e-05
3.87137e-05
4.93653e-05
0.00020728
0.000207273
0.000207274
0.000207277
0.000207276
0.00020727
0.000207271
7.53445e-05
4.61303e-05
0.00019164
0.000170952
7.53152e-05
4.61388e-05
0.000191644
2.44784e-05
2.44788e-05
7.53464e-05
0.000191636
4.61341e-05
0.000170943
7.53165e-05
0.000191641
4.61424e-05
3.88468e-05
3.88441e-05
0.000141616
3.88468e-05
3.88441e-05
3.87112e-05
4.93668e-05
3.8707e-05
4.93662e-05
2.44815e-05
2.44818e-05
3.87175e-05
4.9366e-05
3.87137e-05
4.93654e-05
0.00020728
0.000207273
0.000207274
0.000207277
0.000207276
0.00020727
0.000207271
7.53445e-05
4.61302e-05
0.00019164
0.000170952
7.53152e-05
4.61388e-05
0.000191645
2.44784e-05
2.44788e-05
7.53459e-05
0.000191637
4.61341e-05
0.000170943
7.53163e-05
0.000191641
4.61424e-05
3.88467e-05
3.88441e-05
0.000141616
3.88468e-05
3.8844e-05
3.87146e-05
4.93668e-05
3.8707e-05
4.93662e-05
2.44815e-05
2.44818e-05
3.87206e-05
4.9366e-05
3.87137e-05
4.93654e-05
0.000207279
0.000207273
0.000207274
7.53514e-05
4.61303e-05
0.000191639
0.00017095
7.53152e-05
4.61389e-05
0.000191644
2.44783e-05
0.00019164
4.61341e-05
7.53164e-05
3.88467e-05
3.8844e-05
0.000234868
0.000233564
0.000233566
2.32581e-05
0.000214158
2.3257e-05
0.000214161
0.000234434
5.13587e-05
5.13411e-05
0.000229989
0.00022999
0.000235119
0.000234798
0.000234702
0.000234727
0.000235119
0.000234798
0.000234702
0.000234727
0.000234476
4.02623e-05
0.000218811
0.000147908
0.000234476
4.02618e-05
0.000218811
0.000147915
0.000233886
0.000234474
9.97796e-05
0.000234271
0.000233358
0.000234597
0.000228492
0.000233886
0.000234474
9.97705e-05
0.000234271
0.000233358
0.000234597
0.000228491
0.000234868
0.000233565
0.000233565
2.32578e-05
0.000214166
0.000234434
5.13519e-05
5.13439e-05
0.000229988
0.00022999
2.32576e-05
0.000214168
0.000235119
0.000234798
0.000234702
0.000234727
0.000235119
0.000234798
0.000234727
0.000234702
0.000234476
4.02592e-05
0.000218812
0.000147882
0.000233886
0.000234474
9.9758e-05
0.00023427
0.000233358
0.000234596
0.000228489
0.000234476
4.02587e-05
0.000218812
0.000147898
0.000233886
0.000234474
0.000234271
9.97656e-05
0.000234597
0.000233358
0.000228491
0.00023473
0.000234746
0.000234729
0.000234729
0.00023473
0.000234746
0.000234729
0.000234729
0.00023473
0.000234746
0.000234729
0.000234729
0.000234591
0.000234574
0.000234253
0.000234253
0.000234592
0.000234592
0.000234253
0.000234591
0.000234574
0.000234253
0.000234253
0.000234592
0.000234592
0.000234253
0.000234591
0.000234574
0.000234253
0.000234253
0.000234592
0.000234592
0.000234253
0.000234591
0.000234574
0.000234253
0.000234253
0.000234592
0.000234592
0.000234252
0.000235119
0.000234798
0.000234727
0.000234702
0.000233886
0.000234474
9.97607e-05
0.000234271
0.000233358
0.000234597
0.00022849
0.000234476
4.02599e-05
0.000218814
0.0001479
0.000233886
0.000234474
0.000234271
9.97759e-05
0.000234597
0.000233359
0.000228492
0.000234476
4.02594e-05
0.000218813
0.000147907
0.000234868
0.000233566
0.000233566
2.3257e-05
0.000214162
0.000234434
5.13433e-05
5.13486e-05
0.00022999
0.000229992
2.32574e-05
0.00021417
0.000235119
0.000234798
0.000234727
0.000234702
0.000233886
0.000234474
0.00023427
9.97706e-05
0.000234596
0.000233359
0.000228491
0.000233886
0.000234474
0.000234271
9.97599e-05
0.000234596
0.000233358
0.000228489
0.000234476
4.0259e-05
0.000218815
0.000147884
0.000234476
4.02588e-05
0.00021881
0.00014787
0.000234434
5.13525e-05
5.13403e-05
0.000229991
0.000229991
2.32575e-05
0.000214169
2.3257e-05
0.000214163
2.16824e-05
2.28312e-05
2.16811e-05
2.28296e-05
4.78012e-05
4.77884e-05
0.000231347
4.39106e-05
4.38965e-05
2.44798e-05
2.33092e-05
2.44782e-05
2.3308e-05
0.000229663
4.00307e-05
4.00186e-05
4.30086e-05
4.29932e-05
0.000104562
3.87396e-05
0.000129259
3.98166e-05
0.000206167
9.34613e-05
0.000233968
0.000231986
0.000222638
8.71161e-05
0.000233611
0.000206169
9.34448e-05
0.000233968
0.000231982
0.000222635
8.71036e-05
0.000233611
9.83334e-05
4.19547e-05
4.03779e-05
8.55315e-05
9.83259e-05
4.19532e-05
4.03768e-05
8.55332e-05
0.000200029
0.000230748
8.08259e-05
0.000232682
8.55508e-05
0.000233189
0.000185577
0.000200028
0.000230744
8.08188e-05
0.000232682
8.55336e-05
0.000233189
0.00018558
4.77908e-05
4.78005e-05
0.000231348
4.39021e-05
4.39025e-05
2.1682e-05
2.28312e-05
2.44788e-05
2.33086e-05
0.000229663
4.00242e-05
4.00206e-05
4.29952e-05
4.30068e-05
2.448e-05
2.33093e-05
0.000206156
9.34399e-05
0.000233969
0.000231984
0.000222639
8.70968e-05
0.000233611
0.000104541
3.8736e-05
0.00012929
3.98143e-05
0.000206157
0.000233968
9.34436e-05
0.000231982
0.000222643
0.000233611
8.70965e-05
9.83319e-05
4.1951e-05
4.03744e-05
8.55255e-05
0.000200029
0.000230745
8.08123e-05
0.000232681
8.55338e-05
0.000233189
0.000185574
9.83328e-05
4.19501e-05
4.03737e-05
8.55233e-05
0.000200028
0.000230743
0.000232681
8.08076e-05
0.000233189
8.55324e-05
0.000185571
0.000104549
3.8737e-05
0.000129279
3.98173e-05
0.000206163
0.000233968
9.34523e-05
0.000231986
0.000222648
0.000233611
8.71117e-05
0.000104547
3.87376e-05
0.000129298
3.98155e-05
0.00020003
0.00023075
8.08216e-05
0.000232682
8.55487e-05
0.000233189
0.000185578
9.8331e-05
4.19533e-05
4.03755e-05
8.55276e-05
0.00020003
0.000230748
0.000232682
8.08267e-05
0.000233189
8.55455e-05
0.000185577
9.83365e-05
4.19521e-05
4.03759e-05
8.55287e-05
4.77898e-05
4.77965e-05
0.000231346
4.38943e-05
4.39119e-05
2.16814e-05
2.28301e-05
2.44777e-05
2.33071e-05
0.000229663
4.00145e-05
4.00317e-05
4.29965e-05
4.30019e-05
2.44788e-05
2.33086e-05
0.000206153
0.000233969
9.34383e-05
0.000231983
0.000222648
0.000233611
8.71002e-05
0.000104526
3.87367e-05
0.000129308
3.98157e-05
0.000104521
3.87361e-05
0.000129294
3.98146e-05
0.00020003
0.00023075
0.000232682
8.08268e-05
0.000233189
8.55415e-05
0.000185573
0.000200031
0.000230746
0.000232682
8.08177e-05
0.000233189
8.55323e-05
0.000185572
9.83475e-05
4.19517e-05
4.03755e-05
8.55231e-05
9.83465e-05
4.1951e-05
4.03741e-05
8.55227e-05
2.16818e-05
2.28302e-05
2.16809e-05
2.28296e-05
0.000229663
4.00319e-05
4.00201e-05
4.30058e-05
4.29919e-05
2.4479e-05
2.33088e-05
2.44781e-05
2.33081e-05
2.47783e-05
2.5463e-05
2.47766e-05
2.54612e-05
3.90937e-05
3.90773e-05
0.0002196
3.65205e-05
3.65114e-05
2.59535e-05
2.56216e-05
2.5952e-05
2.56198e-05
0.00021677
3.3789e-05
3.3781e-05
3.56533e-05
3.56363e-05
7.25231e-05
4.24335e-05
8.1373e-05
4.37546e-05
0.000167432
7.94498e-05
0.00023208
0.000226085
0.000180138
7.45638e-05
0.000231374
0.000167436
7.94332e-05
0.000232079
0.00022608
0.00018014
7.45588e-05
0.000231373
6.95717e-05
4.52303e-05
4.41518e-05
6.31857e-05
6.95738e-05
4.523e-05
4.41505e-05
6.31886e-05
0.000162792
0.000224256
6.87356e-05
0.00022965
7.32028e-05
0.000230563
0.000151822
0.000162796
0.00022425
6.87327e-05
0.000229649
7.31852e-05
0.000230563
0.000151826
3.90801e-05
3.90931e-05
0.000219602
3.65167e-05
3.65108e-05
2.47784e-05
2.54632e-05
2.59529e-05
2.56208e-05
0.000216771
3.37851e-05
3.37842e-05
3.56396e-05
3.565e-05
2.59539e-05
2.56215e-05
0.000167434
7.94316e-05
0.00023208
0.000226084
0.000180133
7.45548e-05
0.000231373
7.25089e-05
4.24299e-05
8.13665e-05
4.37511e-05
0.000167431
0.000232079
7.94339e-05
0.000226078
0.00018013
0.000231373
7.45459e-05
6.95747e-05
4.52273e-05
4.41484e-05
6.31862e-05
0.000162785
0.000224254
6.87279e-05
0.000229649
7.31855e-05
0.000230563
0.000151825
6.95742e-05
4.52261e-05
4.41465e-05
6.31833e-05
0.000162782
0.000224248
0.000229648
6.87223e-05
0.000230562
7.31843e-05
0.00015182
7.2516e-05
4.24328e-05
8.13737e-05
4.37545e-05
0.000167431
0.000232079
7.94418e-05
0.000226084
0.000180137
0.000231373
7.45649e-05
7.25189e-05
4.24324e-05
8.13678e-05
4.37529e-05
0.000162795
0.000224261
6.87368e-05
0.00022965
7.32e-05
0.000230564
0.000151824
6.9576e-05
4.52297e-05