/*--------------------------------*- C++ -*----------------------------------*\
| =========                 |                                                 |
| \\      /  F ield         | OpenFOAM: The Open Source CFD Toolbox           |
|  \\    /   O peration     | Version:  v1912                                 |
|   \\  /    A nd           | Website:  www.openfoam.com                      |
|    \\/     M anipulation  |                                                 |
\*---------------------------------------------------------------------------*/
FoamFile
{
    version     2.0;
    format      ascii;
    class       volScalarField;
    location    "40";
    object      p;
}
// * * * * * * * * * * * * * * * * * * * * * * * * * * * * * * * * * * * * * //

dimensions      [0 2 -2 0 0 0 0];


internalField   nonuniform List<scalar> 
57100
(
0.00382347
0.00382376
0.00382376
0.00382665
0.00376712
0.00376784
0.00376784
0.003771
0.00371678
0.00371677
0.00371677
0.00371947
0.00366441
0.00366441
0.00366441
0.00366711
0.00361309
0.00361308
0.00361308
0.00361574
0.0035631
0.00356311
0.00356311
0.00356572
0.00351463
0.00351464
0.00351464
0.00351718
0.0034681
0.003468
0.003468
0.00347042
0.00342456
0.00342447
0.00342447
0.00342676
0.00338378
0.00338372
0.00338372
0.00338603
0.00334376
0.00334372
0.00334372
0.00334602
0.00330392
0.00330388
0.00330388
0.00330617
0.00326412
0.00326408
0.00326408
0.00326638
0.00322433
0.00322429
0.00322429
0.00322658
0.00318454
0.00318449
0.00318449
0.00318679
0.00314474
0.0031447
0.0031447
0.00314699
0.00310494
0.00310489
0.00310489
0.00310719
0.00306513
0.00306509
0.00306509
0.00306738
0.00302533
0.00302528
0.00302528
0.00302758
0.00298552
0.00298547
0.00298548
0.00298777
0.00294571
0.00294567
0.00294567
0.00294797
0.00290591
0.00290586
0.00290586
0.00290816
0.0028661
0.00286606
0.00286606
0.00286835
0.0028263
0.00282625
0.00282625
0.00282855
0.00278649
0.00278645
0.00278645
0.00278874
0.00274668
0.00274664
0.00274664
0.00274894
0.00270688
0.00270684
0.00270684
0.00270913
0.00266707
0.00266703
0.00266703
0.00266933
0.00262727
0.00262723
0.00262723
0.00262952
0.00258746
0.00258742
0.00258742
0.00258972
0.00383669
0.00383696
0.00383696
0.00383669
0.00383696
0.00383696
0.00383768
0.00383768
0.00383768
0.00383768
0.00383696
0.00383696
0.00383669
0.00383697
0.00383697
0.00383669
0.00382665
0.00377771
0.00382376
0.00382376
0.0037797
0.0037797
0.00382665
0.00377771
0.00382376
0.00382376
0.00377969
0.0037797
0.00382376
0.00377969
0.0037797
0.00382665
0.00377771
0.00382376
0.00377969
0.00377969
0.00377771
0.003771
0.00372661
0.00376784
0.00376784
0.00372988
0.00372988
0.003771
0.00372661
0.00376784
0.00376784
0.00372988
0.00372988
0.00376784
0.00372988
0.00372988
0.003771
0.00372661
0.00376784
0.00372988
0.00372988
0.00372661
0.00371948
0.0036742
0.00371677
0.00371677
0.00367743
0.00367743
0.00371947
0.0036742
0.00371677
0.00371677
0.00367743
0.00367743
0.00371677
0.00367743
0.00367743
0.00371947
0.0036742
0.00371677
0.00367743
0.00367743
0.0036742
0.00366711
0.00362264
0.00366441
0.00366441
0.0036258
0.0036258
0.00366711
0.00362264
0.00366441
0.00366441
0.0036258
0.0036258
0.00366441
0.0036258
0.0036258
0.00366711
0.00362264
0.00366441
0.0036258
0.0036258
0.00362264
0.00361574
0.00357241
0.00361308
0.00361308
0.00357546
0.00357546
0.00361574
0.00357241
0.00361308
0.00361308
0.00357546
0.00357546
0.00361308
0.00357546
0.00357546
0.00361574
0.00357241
0.00361308
0.00357546
0.00357546
0.0035724
0.00356572
0.00352366
0.00356311
0.00356311
0.00352661
0.00352661
0.00356572
0.00352366
0.00356311
0.00356311
0.00352661
0.00352662
0.00356311
0.00352661
0.00352661
0.00356572
0.00352366
0.00356311
0.00352661
0.00352661
0.00352366
0.00351718
0.00347659
0.00351463
0.00351463
0.0034794
0.0034794
0.00351718
0.00347659
0.00351464
0.00351463
0.00347941
0.0034794
0.00351464
0.00347941
0.00347941
0.00351718
0.00347659
0.00351464
0.00347941
0.00347941
0.00347659
0.00347042
0.00343241
0.003468
0.003468
0.00343501
0.00343501
0.00347042
0.00343241
0.003468
0.003468
0.00343501
0.00343501
0.003468
0.00343501
0.00343501
0.00347042
0.00343241
0.003468
0.00343501
0.00343501
0.00343241
0.00342676
0.00339145
0.00342446
0.00342447
0.00339378
0.00339378
0.00342676
0.00339145
0.00342446
0.00342447
0.00339378
0.00339378
0.00342447
0.00339378
0.00339378
0.00342676
0.00339145
0.00342447
0.00339378
0.00339378
0.00339145
0.00338603
0.0033514
0.00338372
0.00338372
0.0033537
0.0033537
0.00338603
0.0033514
0.00338372
0.00338372
0.0033537
0.0033537
0.00338372
0.0033537
0.0033537
0.00338603
0.0033514
0.00338372
0.0033537
0.0033537
0.0033514
0.00334602
0.00331154
0.00334372
0.00334372
0.00331383
0.00331383
0.00334602
0.00331154
0.00334372
0.00334372
0.00331383
0.00331383
0.00334372
0.00331383
0.00331383
0.00334602
0.00331154
0.00334372
0.00331383
0.00331383
0.00331154
0.00330617
0.00327174
0.00330388
0.00330388
0.00327403
0.00327403
0.00330617
0.00327174
0.00330388
0.00330388
0.00327403
0.00327403
0.00330388
0.00327403
0.00327403
0.00330617
0.00327174
0.00330388
0.00327403
0.00327403
0.00327174
0.00326638
0.00323195
0.00326408
0.00326408
0.00323424
0.00323424
0.00326638
0.00323195
0.00326408
0.00326408
0.00323424
0.00323424
0.00326408
0.00323424
0.00323424
0.00326638
0.00323195
0.00326408
0.00323424
0.00323424
0.00323195
0.00322658
0.00319216
0.00322429
0.00322429
0.00319444
0.00319444
0.00322658
0.00319216
0.00322429
0.00322429
0.00319444
0.00319444
0.00322429
0.00319444
0.00319444
0.00322658
0.00319216
0.00322429
0.00319444
0.00319444
0.00319216
0.00318679
0.00315236
0.00318449
0.00318449
0.00315465
0.00315465
0.00318679
0.00315236
0.00318449
0.00318449
0.00315465
0.00315465
0.00318449
0.00315465
0.00315465
0.00318679
0.00315236
0.00318449
0.00315465
0.00315465
0.00315236
0.00314699
0.00311256
0.0031447
0.0031447
0.00311484
0.00311484
0.00314699
0.00311256
0.0031447
0.0031447
0.00311484
0.00311484
0.0031447
0.00311484
0.00311484
0.00314699
0.00311256
0.0031447
0.00311484
0.00311484
0.00311256
0.00310719
0.00307276
0.00310489
0.00310489
0.00307504
0.00307504
0.00310719
0.00307276
0.00310489
0.00310489
0.00307504
0.00307504
0.00310489
0.00307504
0.00307504
0.00310719
0.00307276
0.00310489
0.00307504
0.00307504
0.00307276
0.00306739
0.00303295
0.00306509
0.00306509
0.00303523
0.00303523
0.00306739
0.00303295
0.00306509
0.00306509
0.00303523
0.00303523
0.00306509
0.00303523
0.00303523
0.00306738
0.00303295
0.00306509
0.00303523
0.00303523
0.00303295
0.00302758
0.00299314
0.00302528
0.00302528
0.00299543
0.00299543
0.00302758
0.00299314
0.00302528
0.00302528
0.00299543
0.00299543
0.00302528
0.00299543
0.00299543
0.00302758
0.00299314
0.00302528
0.00299543
0.00299543
0.00299314
0.00298777
0.00295334
0.00298548
0.00298547
0.00295562
0.00295562
0.00298777
0.00295334
0.00298548
0.00298548
0.00295562
0.00295562
0.00298548
0.00295562
0.00295562
0.00298777
0.00295334
0.00298548
0.00295562
0.00295562
0.00295334
0.00294797
0.00291353
0.00294567
0.00294567
0.00291582
0.00291582
0.00294797
0.00291353
0.00294567
0.00294567
0.00291582
0.00291582
0.00294567
0.00291582
0.00291582
0.00294797
0.00291353
0.00294567
0.00291582
0.00291582
0.00291353
0.00290816
0.00287373
0.00290586
0.00290586
0.00287601
0.00287601
0.00290816
0.00287373
0.00290586
0.00290586
0.00287601
0.00287601
0.00290586
0.00287601
0.00287601
0.00290816
0.00287373
0.00290586
0.00287601
0.00287601
0.00287373
0.00286835
0.00283392
0.00286606
0.00286606
0.0028362
0.0028362
0.00286835
0.00283392
0.00286606
0.00286606
0.0028362
0.0028362
0.00286606
0.0028362
0.0028362
0.00286836
0.00283392
0.00286606
0.0028362
0.0028362
0.00283392
0.00282855
0.00279411
0.00282625
0.00282625
0.0027964
0.0027964
0.00282855
0.00279411
0.00282625
0.00282625
0.0027964
0.0027964
0.00282625
0.0027964
0.0027964
0.00282855
0.00279411
0.00282625
0.0027964
0.0027964
0.00279411
0.00278874
0.00275431
0.00278645
0.00278645
0.00275659
0.00275659
0.00278874
0.00275431
0.00278645
0.00278645
0.00275659
0.00275659
0.00278645
0.00275659
0.00275659
0.00278874
0.00275431
0.00278645
0.00275659
0.00275659
0.00275431
0.00274894
0.0027145
0.00274664
0.00274664
0.00271679
0.00271679
0.00274894
0.0027145
0.00274664
0.00274664
0.00271679
0.00271679
0.00274664
0.00271679
0.00271679
0.00274894
0.0027145
0.00274664
0.00271679
0.00271679
0.0027145
0.00270913
0.0026747
0.00270684
0.00270684
0.00267698
0.00267698
0.00270913
0.0026747
0.00270684
0.00270684
0.00267698
0.00267698
0.00270684
0.00267698
0.00267698
0.00270913
0.0026747
0.00270684
0.00267698
0.00267698
0.0026747
0.00266933
0.00263489
0.00266703
0.00266703
0.00263718
0.00263718
0.00266933
0.00263489
0.00266703
0.00266703
0.00263718
0.00263718
0.00266703
0.00263718
0.00263718
0.00266933
0.00263489
0.00266703
0.00263718
0.00263718
0.00263489
0.00262952
0.00259509
0.00262723
0.00262723
0.00259737
0.00259737
0.00262952
0.00259509
0.00262723
0.00262723
0.00259737
0.00259737
0.00262723
0.00259737
0.00259737
0.00262952
0.00259509
0.00262723
0.00259737
0.00259737
0.00259509
0.00258972
0.00258742
0.00258742
0.00258972
0.00258742
0.00258742
0.00258742
0.00258972
0.00258742
0.00384491
0.00385447
0.00384938
0.00384939
0.00387167
0.00385842
0.00388651
0.00385257
0.00387167
0.00385843
0.00385257
0.00388651
0.00386298
0.00389029
0.00389028
0.00379996
0.00382559
0.00382812
0.00378978
0.00380414
0.0037903
0.00379993
0.00382558
0.00382811
0.00378976
0.00382347
0.00382347
0.00382347
0.00377913
0.00377913
0.00377913
0.00377913
0.00379807
0.00382505
0.00382365
0.00380681
0.00382753
0.00379471
0.00380762
0.00380423
0.00379031
0.00379808
0.00382366
0.00382506
0.00380681
0.00382752
0.00380762
0.00379471
0.00382866
0.00382865
0.00380097
0.00379537
0.00379536
0.00375356
0.00377362
0.00377433
0.00375205
0.00377234
0.00375155
0.00375355
0.00377361
0.00377433
0.00375204
0.00376712
0.00376712
0.00376712
0.00372992
0.00372992
0.00372992
0.00372992
0.00375214
0.00377315
0.00376754
0.0037556
0.00377181
0.0037524
0.00375543
0.00377234
0.00375154
0.00375214
0.00376754
0.00377314
0.0037556
0.00377181
0.00375543
0.0037524
0.00377443
0.00377443
0.00375248
0.00375296
0.00375296
0.00370124
0.00372
0.00372103
0.00370023
0.00371962
0.00369994
0.00370124
0.00372
0.00372103
0.00370023
0.00371678
0.00371678
0.00371678
0.00367741
0.00367741
0.00367741
0.00367741
0.00370033
0.00372028
0.00371676
0.00370363
0.00371985
0.0037006
0.00370359
0.00371962
0.00369994
0.00370033
0.00371676
0.00372028
0.00370363
0.00371985
0.00370359
0.00370059
0.00372059
0.00372059
0.00370042
0.00370074
0.00370074
0.00364867
0.00366727
0.00366812
0.00364792
0.00366706
0.00364773
0.00364867
0.00366727
0.00366812
0.00364792
0.00366441
0.00366441
0.00366441
0.00362581
0.00362581
0.00362581
0.00362581
0.00364815
0.00366763
0.0036644
0.00365147
0.00366743
0.0036483
0.00365146
0.00366706
0.00364773
0.00364815
0.0036644
0.00366763
0.00365147
0.00366743
0.00365146
0.0036483
0.00366769
0.00366769
0.00364829
0.00364827
0.00364827
0.00359745
0.0036158
0.00361641
0.00359692
0.00361565
0.00359675
0.00359745
0.0036158
0.00361641
0.00359691
0.00361309
0.00361309
0.00361309
0.00357545
0.00357545
0.00357545
0.00357545
0.00359718
0.00361612
0.00361307
0.00360045
0.00361599
0.00359727
0.00360043
0.00361565
0.00359675
0.00359718
0.00361307
0.00361612
0.00360045
0.00361599
0.00360043
0.00359726
0.00361611
0.00361611
0.00359735
0.00359718
0.00359718
0.00354778
0.00356577
0.00356621
0.00354739
0.00356564
0.00354726
0.00354778
0.00356577
0.00356621
0.00354739
0.0035631
0.0035631
0.0035631
0.00352661
0.00352661
0.00352661
0.00352661
0.00354767
0.00356605
0.00356309
0.00355086
0.00356595
0.00354772
0.00355083
0.00356563
0.00354726
0.00354767
0.00356309
0.00356605
0.00355086
0.00356595
0.00355083
0.00354772
0.00356602
0.00356602
0.00354785
0.00354763
0.00354763
0.00349959
0.00351717
0.00351747
0.00349931
0.00351705
0.00349919
0.00349959
0.00351717
0.00351747
0.00349931
0.00351463
0.00351463
0.00351464
0.00347949
0.00347949
0.00347949
0.00347949
0.00349962
0.00351742
0.00351461
0.00350276
0.00351735
0.00349962
0.00350275
0.00351705
0.00349919
0.00349962
0.00351461
0.00351742
0.00350276
0.00351735
0.00350275
0.00349962
0.00351739
0.00351739
0.00349984
0.00349952
0.00349952
0.0034535
0.00347021
0.00347053
0.00345339
0.00347009
0.00345325
0.0034535
0.00347021
0.00347053
0.00345339
0.0034681
0.0034681
0.0034681
0.00343511
0.00343511
0.00343511
0.00343511
0.00345368
0.00347048
0.00346802
0.0034568
0.0034705
0.00345366
0.00345682
0.00347009
0.00345325
0.00345368
0.00346802
0.00347048
0.0034568
0.0034705
0.00345682
0.00345366
0.00347039
0.00347039
0.00345394
0.00345351
0.00345351
0.00341111
0.00342653
0.00342642
0.00341119
0.00342647
0.00341116
0.00341111
0.00342653
0.00342642
0.00341119
0.00342457
0.00342456
0.00342457
0.00339385
0.00339385
0.00339385
0.00339385
0.00341139
0.00342668
0.0034245
0.00341411
0.00342672
0.00341134
0.00341415
0.00342647
0.00341116
0.0034114
0.0034245
0.00342669
0.00341411
0.00342672
0.00341415
0.00341134
0.00342663
0.00342663
0.00341169
0.00341127
0.00341127
0.00337114
0.00338603
0.00338608
0.00337109
0.00338604
0.00337109
0.00337114
0.00338603
0.00338608
0.00337109
0.00338378
0.00338378
0.00338378
0.00335374
0.00335374
0.00335374
0.00335374
0.00337122
0.00338606
0.00338374
0.00337369
0.00338611
0.00337116
0.00337371
0.00338603
0.00337109
0.00337122
0.00338374
0.00338606
0.00337369
0.00338611
0.00337371
0.00337116
0.00338608
0.00338608
0.00337139
0.00337111
0.00337111
0.00333128
0.00334616
0.00334619
0.00333127
0.00334616
0.00333127
0.00333128
0.00334616
0.00334619
0.00333127
0.00334377
0.00334376
0.00334377
0.00331387
0.00331387
0.00331387
0.00331387
0.00333132
0.00334615
0.00334373
0.00333375
0.00334616
0.0033313
0.00333376
0.00334616
0.00333127
0.00333132
0.00334373
0.00334615
0.00333375
0.00334617
0.00333376
0.0033313
0.00334618
0.00334618
0.00333146
0.00333126
0.00333126
0.00329147
0.00330636
0.00330637
0.00329147
0.00330636
0.00329147
0.00329147
0.00330636
0.00330637
0.00329147
0.00330392
0.00330392
0.00330392
0.00327408
0.00327407
0.00327408
0.00327408
0.00329151
0.00330633
0.00330389
0.00329393
0.00330633
0.0032915
0.00329394
0.00330636
0.00329147
0.00329151
0.00330389
0.00330633
0.00329393
0.00330633
0.00329394
0.0032915
0.00330637
0.00330637
0.00329164
0.00329147
0.00329147
0.00325168
0.00326657
0.00326657
0.00325168
0.00326657
0.00325168
0.00325168
0.00326657
0.00326657
0.00325168
0.00326412
0.00326412
0.00326412
0.00323428
0.00323428
0.00323428
0.00323428
0.00325172
0.00326654
0.00326409
0.00325413
0.00326654
0.00325171
0.00325414
0.00326657
0.00325168
0.00325172
0.00326409
0.00326654
0.00325413
0.00326654
0.00325414
0.00325171
0.00326657
0.00326657
0.00325185
0.00325167
0.00325167
0.00321189
0.00322678
0.00322678
0.00321189
0.00322678
0.00321189
0.00321189
0.00322678
0.00322678
0.00321189
0.00322433
0.00322433
0.00322433
0.00319448
0.00319449
0.00319448
0.00319448
0.00321193
0.00322675
0.0032243
0.00321434
0.00322674
0.00321191
0.00321435
0.00322678
0.00321189
0.00321193
0.0032243
0.00322675
0.00321434
0.00322674
0.00321435
0.00321191
0.00322678
0.00322678
0.00321205
0.00321188
0.00321188
0.00317209
0.00318698
0.00318699
0.00317209
0.00318699
0.0031721
0.00317209
0.00318698
0.00318699
0.00317209
0.00318454
0.00318454
0.00318454
0.00315469
0.00315469
0.00315469
0.00315469
0.00317213
0.00318696
0.0031845
0.00317454
0.00318695
0.00317212
0.00317455
0.00318698
0.00317209
0.00317213
0.0031845
0.00318696
0.00317454
0.00318695
0.00317455
0.00317212
0.00318699
0.00318699
0.00317226
0.00317209
0.00317209
0.00313229
0.00314719
0.00314719
0.00313229
0.00314718
0.00313229
0.00313229
0.00314719
0.00314719
0.00313229
0.00314474
0.00314474
0.00314474
0.00311489
0.00311489
0.00311489
0.00311489
0.00313233
0.00314716
0.0031447
0.00313474
0.00314715
0.00313232
0.00313475
0.00314719
0.00313229
0.00313233
0.00314471
0.00314716
0.00313475
0.00314715
0.00313476
0.00313232
0.00314719
0.00314719
0.00313246
0.00313229
0.00313229
0.00309249
0.00310738
0.00310739
0.00309249
0.00310739
0.00309249
0.00309249
0.00310738
0.00310739
0.00309249
0.00310494
0.00310494
0.00310494
0.00307508
0.00307508
0.00307508
0.00307508
0.00309253
0.00310736
0.0031049
0.00309494
0.00310735
0.00309252
0.00309495
0.00310739
0.00309249
0.00309253
0.0031049
0.00310736
0.00309494
0.00310735
0.00309495
0.00309252
0.00310739
0.00310739
0.00309266
0.00309249
0.00309249
0.00305269
0.00306758
0.00306758
0.00305269
0.00306758
0.00305269
0.00305269
0.00306758
0.00306758
0.00305269
0.00306513
0.00306513
0.00306513
0.00303528
0.00303528
0.00303528
0.00303528
0.00305272
0.00306755
0.0030651
0.00305514
0.00306755
0.00305271
0.00305515
0.00306758
0.00305268
0.00305272
0.0030651
0.00306755
0.00305514
0.00306755
0.00305515
0.00305271
0.00306758
0.00306758
0.00305285
0.00305268
0.00305268
0.00301288
0.00302778
0.00302778
0.00301288
0.00302778
0.00301288
0.00301288
0.00302777
0.00302778
0.00301288
0.00302532
0.00302533
0.00302532
0.00299547
0.00299547
0.00299547
0.00299547
0.00301292
0.00302775
0.00302529
0.00301533
0.00302774
0.0030129
0.00301534
0.00302777
0.00301288
0.00301292
0.00302529
0.00302775
0.00301533
0.00302774
0.00301534
0.0030129
0.00302778
0.00302778
0.00301305
0.00301287
0.00301287
0.00297307
0.00298797
0.00298797
0.00297307
0.00298796
0.00297308
0.00297307
0.00298797
0.00298797
0.00297307
0.00298552
0.00298552
0.00298552
0.00295566
0.00295566
0.00295566
0.00295566
0.00297311
0.00298794
0.00298549
0.00297552
0.00298793
0.0029731
0.00297553
0.00298797
0.00297307
0.00297311
0.00298549
0.00298794
0.00297552
0.00298793
0.00297553
0.0029731
0.00298797
0.00298797
0.00297324
0.00297307
0.00297307
0.00293327
0.00294816
0.00294816
0.00293326
0.00294815
0.00293327
0.00293327
0.00294816
0.00294816
0.00293327
0.00294571
0.00294571
0.00294571
0.00291586
0.00291586
0.00291586
0.00291586
0.00293331
0.00294813
0.00294568
0.00293572
0.00294813
0.00293329
0.00293573
0.00294816
0.00293326
0.00293331
0.00294568
0.00294813
0.00293572
0.00294813
0.00293573
0.00293329
0.00294817
0.00294817
0.00293343
0.00293326
0.00293326
0.00289346
0.00290835
0.00290836
0.00289346
0.00290836
0.00289346
0.00289346
0.00290835
0.00290836
0.00289346
0.00290591
0.00290591
0.00290591
0.00287605
0.00287605
0.00287605
0.00287605
0.0028935
0.00290833
0.00290587
0.00289591
0.00290832
0.00289349
0.00289592
0.00290836
0.00289346
0.0028935
0.00290587
0.00290833
0.00289591
0.00290832
0.00289592
0.00289349
0.00290836
0.00290836
0.00289363
0.00289346
0.00289346
0.00285366
0.00286855
0.00286855
0.00285366
0.00286855
0.00285365
0.00285366
0.00286855
0.00286855
0.00285366
0.0028661
0.0028661
0.0028661
0.00283625
0.00283625
0.00283625
0.00283625
0.00285369
0.00286852
0.00286607
0.00285611
0.00286852
0.00285368
0.00285612
0.00286855
0.00285365
0.00285369
0.00286607
0.00286852
0.00285611
0.00286852
0.00285612
0.00285368
0.00286855
0.00286855
0.00285382
0.00285365
0.00285365
0.00281385
0.00282874
0.00282875
0.00281385
0.00282875
0.00281385
0.00281385
0.00282874
0.00282875
0.00281385
0.0028263
0.0028263
0.0028263
0.00279644
0.00279644
0.00279644
0.00279644
0.00281389
0.00282872
0.00282626
0.0028163
0.00282871
0.00281388
0.00281631
0.00282875
0.00281385
0.00281389
0.00282626
0.00282872
0.0028163
0.00282871
0.00281631
0.00281388
0.00282875
0.00282875
0.00281402
0.00281384
0.00281384
0.00277404
0.00278894
0.00278894
0.00277404
0.00278894
0.00277404
0.00277404
0.00278894
0.00278894
0.00277404
0.00278649
0.00278649
0.00278649
0.00275664
0.00275664
0.00275664
0.00275664
0.00277408
0.00278891
0.00278646
0.0027765
0.0027889
0.00277407
0.00277651
0.00278894
0.00277404
0.00277408
0.00278646
0.00278891
0.0027765
0.0027889
0.00277651
0.00277407
0.00278894
0.00278894
0.00277421
0.00277404
0.00277404
0.00273424
0.00274913
0.00274914
0.00273424
0.00274913
0.00273424
0.00273424
0.00274913
0.00274914
0.00273424
0.00274668
0.00274668
0.00274668
0.00271683
0.00271683
0.00271683
0.00271683
0.00273428
0.00274911
0.00274665
0.00273669
0.0027491
0.00273426
0.0027367
0.00274913
0.00273424
0.00273428
0.00274665
0.00274911
0.00273669
0.0027491
0.0027367
0.00273426
0.00274914
0.00274914
0.00273441
0.00273423
0.00273423
0.00269443
0.00270933
0.00270933
0.00269443
0.00270933
0.00269443
0.00269443
0.00270933
0.00270933
0.00269443
0.00270688
0.00270688
0.00270688
0.00267702
0.00267702
0.00267702
0.00267702
0.00269447
0.0027093
0.00270685
0.00269688
0.00270929
0.00269446
0.00269689
0.00270933
0.00269443
0.00269447
0.00270685
0.0027093
0.00269688
0.00270929
0.00269689
0.00269446
0.00270933
0.00270933
0.0026946
0.00269443
0.00269443
0.00265463
0.00266952
0.00266952
0.00265463
0.00266952
0.00265463
0.00265463
0.00266952
0.00266952
0.00265463
0.00266707
0.00266707
0.00266707
0.00263722
0.00263722
0.00263722
0.00263722
0.00265467
0.00266949
0.00266704
0.00265708
0.00266949
0.00265465
0.00265709
0.00266952
0.00265463
0.00265467
0.00266704
0.00266949
0.00265708
0.00266949
0.00265709
0.00265465
0.00266953
0.00266953
0.00265479
0.00265462
0.00265462
0.00261482
0.00262972
0.00262972
0.00261482
0.00262972
0.00261482
0.00261482
0.00262972
0.00262972
0.00261482
0.00262727
0.00262727
0.00262727
0.00259741
0.00259741
0.00259741
0.00259741
0.00261486
0.00262969
0.00262724
0.00261727
0.00262968
0.00261485
0.00261728
0.00262972
0.00261482
0.00261486
0.00262724
0.00262969
0.00261727
0.00262968
0.00261728
0.00261485
0.00262972
0.00262972
0.00261499
0.00261482
0.00261482
0.00257502
0.00258991
0.00258991
0.00257502
0.00258991
0.00257502
0.00257502
0.00258991
0.00258991
0.00257502
0.00258746
0.00258746
0.00258746
0.00257506
0.00258988
0.00258743
0.00257747
0.00258988
0.00257504
0.00257748
0.00258991
0.00258743
0.00258988
0.00258988
0.00258992
0.00258992
0.00386298
0.00389026
0.00389028
0.00385568
0.00388936
0.00385564
0.00388937
0.00385978
0.00384584
0.00384584
0.00388509
0.0038851
0.00387165
0.00385842
0.00388649
0.00385257
0.00387166
0.00385842
0.00388651
0.00385257
0.00387591
0.0038498
0.00388657
0.00384145
0.00387591
0.00384979
0.00388659
0.00384146
0.00386733
0.0038559
0.0038405
0.003839
0.00388185
0.00385099
0.00383973
0.00386733
0.0038559
0.00384049
0.003839
0.00388186
0.00385099
0.00383973
0.00386298
0.00389028
0.00389028
0.00385564
0.00388937
0.00385978
0.00384583
0.00384585
0.0038851
0.0038851
0.00385566
0.00388937
0.00387167
0.00385842
0.00388651
0.00385257
0.00387167
0.00385842
0.00385257
0.00388651
0.00387594
0.0038498
0.00388659
0.00384147
0.00386734
0.0038559
0.0038405
0.003839
0.00388186
0.00385099
0.00383974
0.00387593
0.00384981
0.00388659
0.00384147
0.00386734
0.0038559
0.003839
0.0038405
0.00385099
0.00388186
0.00383974
0.00384491
0.00385447
0.00384938
0.00384939
0.00384491
0.00385447
0.00384939
0.00384939
0.00384491
0.00385447
0.00384939
0.00384939
0.00384367
0.00385254
0.00383578
0.00383578
0.00384795
0.00384796
0.00383399
0.00384367
0.00385254
0.00383578
0.00383578
0.00384795
0.00384796
0.00383399
0.00384368
0.00385255
0.00383578
0.00383578
0.00384796
0.00384796
0.00383399
0.00384368
0.00385254
0.00383578
0.00383578
0.00384796
0.00384796
0.00383399
0.00387167
0.00385842
0.00385257
0.00388652
0.00386734
0.0038559
0.0038405
0.003839
0.00388186
0.00385099
0.00383973
0.00387593
0.00384981
0.00388659
0.00384147
0.00386734
0.0038559
0.003839
0.0038405
0.00385099
0.00388186
0.00383973
0.00387593
0.0038498
0.00388659
0.00384146
0.00386298
0.00389028
0.00389028
0.00385562
0.00388937
0.00385979
0.00384584
0.00384584
0.0038851
0.00388511
0.00385561
0.00388938
0.00387167
0.00385842
0.00385257
0.00388651
0.00386734
0.0038559
0.00383901
0.0038405
0.00385099
0.00388186
0.00383974
0.00386734
0.0038559
0.00383901
0.0038405
0.00385099
0.00388186
0.00383974
0.00387593
0.0038498
0.00388659
0.00384146
0.00387594
0.00384982
0.00388659
0.00384147
0.00385978
0.00384584
0.00384585
0.00388511
0.0038851
0.00385562
0.00388937
0.00385565
0.00388937
0.00380415
0.0037903
0.00380423
0.00379029
0.00382863
0.00382866
0.00380098
0.00379536
0.00379537
0.00377937
0.00379265
0.00377937
0.00379265
0.00379394
0.00378132
0.00378132
0.00379287
0.00379287
0.00379995
0.00382557
0.00382812
0.00378978
0.00379809
0.00382505
0.00382365
0.0038068
0.00382753
0.00379471
0.00380763
0.00379809
0.00382504
0.00382365
0.00380681
0.00382753
0.00379472
0.00380763
0.00379494
0.00378065
0.00378985
0.00378079
0.00379494
0.00378065
0.00378985
0.00378079
0.00379228
0.00379216
0.00377991
0.00377961
0.00379172
0.0037927
0.00377804
0.00379228
0.00379216
0.00377992
0.00377961
0.00379173
0.0037927
0.00377804
0.00382861
0.00382866
0.00380099
0.00379537
0.00379537
0.00380426
0.00379029
0.00377937
0.00379265
0.00379395
0.00378132
0.00378132
0.00379287
0.00379287
0.00377936
0.00379265
0.00379807
0.00382505
0.00382365
0.00380681
0.00382753
0.00379471
0.00380762
0.00379994
0.00382559
0.0038281
0.00378978
0.00379808
0.00382365
0.00382505
0.00380681
0.00382753
0.00380762
0.00379471
0.00379493
0.00378065
0.00378984
0.00378079
0.00379227
0.00379216
0.00377991
0.00377961
0.00379171
0.00379269
0.00377804
0.00379493
0.00378065
0.00378985
0.00378079
0.00379227
0.00379216
0.00377961
0.00377991
0.0037927
0.00379172
0.00377804
0.00379993
0.00382559
0.00382811
0.00378977
0.00379808
0.00382365
0.00382506
0.0038068
0.00382752
0.00380762
0.00379471
0.00379994
0.00382559
0.0038281
0.00378977
0.00379226
0.00379216
0.00377991
0.00377961
0.00379171
0.00379269
0.00377804
0.00379493
0.00378065
0.00378984
0.00378079
0.00379227
0.00379216
0.00377961
0.00377991
0.0037927
0.00379171
0.00377804
0.00379493
0.00378065
0.00378983
0.00378079
0.00382865
0.00382866
0.00380096
0.00379537
0.00379536
0.00380423
0.00379029
0.00377937
0.00379266
0.00379394
0.00378132
0.00378132
0.00379287
0.00379286
0.00377937
0.00379262
0.00379807
0.00382366
0.00382505
0.00380682
0.00382753
0.00380762
0.0037947
0.00379994
0.00382559
0.0038281
0.00378977
0.00379993
0.0038256
0.00382811
0.00378977
0.00379227
0.00379216
0.00377961
0.00377991
0.0037927
0.00379171
0.00377804
0.00379227
0.00379216
0.00377961
0.00377991
0.0037927
0.00379171
0.00377803
0.00379493
0.00378065
0.00378984
0.00378078
0.00379493
0.00378065
0.00378984
0.00378078
0.00380425
0.00379029
0.00380425
0.00379029
0.00379394
0.00378132
0.00378131
0.00379286
0.00379286
0.00377938
0.00379263
0.00377936
0.00379264
0.00377235
0.00375155
0.00377234
0.00375155
0.00377443
0.00377443
0.00375248
0.00375296
0.00375296
0.00372607
0.00374502
0.00372608
0.00374502
0.00374542
0.00372712
0.00372712
0.00374633
0.00374633
0.00375356
0.00377362
0.00377433
0.00375205
0.00375214
0.00377315
0.00376754
0.0037556
0.00377181
0.0037524
0.00375543
0.00375214
0.00377315
0.00376754
0.0037556
0.00377181
0.0037524
0.00375543
0.00374688
0.00372649
0.00374548
0.00372758
0.00374688
0.00372649
0.00374548
0.00372758
0.00374552
0.00374288
0.00372684
0.00372989
0.00374586
0.00374285
0.00372646
0.00374552
0.00374288
0.00372684
0.00372989
0.00374586
0.00374285
0.00372646
0.00377443
0.00377443
0.00375248
0.00375297
0.00375297
0.00377235
0.00375156
0.00372607
0.00374502
0.00374542
0.00372712
0.00372712
0.00374633
0.00374633
0.00372607
0.00374502
0.00375214
0.00377314
0.00376754
0.0037556
0.00377181
0.0037524
0.00375543
0.00375355
0.00377361
0.00377433
0.00375204
0.00375214
0.00376754
0.00377314
0.0037556
0.00377181
0.00375543
0.0037524
0.00374687
0.00372649
0.00374548
0.00372758
0.00374552
0.00374288
0.00372684
0.00372989
0.00374586
0.00374285
0.00372646
0.00374688
0.00372649
0.00374548
0.00372758
0.00374552
0.00374288
0.00372989
0.00372684
0.00374285
0.00374586
0.00372646
0.00375356
0.00377362
0.00377433
0.00375205
0.00375214
0.00376754
0.00377315
0.0037556
0.00377181
0.00375543
0.0037524
0.00375356
0.00377362
0.00377433
0.00375204
0.00374552
0.00374288
0.00372684
0.00372989
0.00374586
0.00374285
0.00372646
0.00374688
0.00372649
0.00374548
0.00372758
0.00374552
0.00374288
0.00372989
0.00372684
0.00374285
0.00374586
0.00372646
0.00374688
0.00372649
0.00374548
0.00372758
0.00377443
0.00377443
0.00375248
0.00375296
0.00375296
0.00377235
0.00375155
0.00372607
0.00374502
0.00374542
0.00372712
0.00372712
0.00374633
0.00374633
0.00372607
0.00374502
0.00375214
0.00376754
0.00377314
0.0037556
0.0037718
0.00375543
0.0037524
0.00375356
0.00377361
0.00377433
0.00375205
0.00375356
0.00377361
0.00377433
0.00375205
0.00374552
0.00374288
0.00372989
0.00372684
0.00374285
0.00374586
0.00372646
0.00374552
0.00374288
0.00372989
0.00372684
0.00374285
0.00374586
0.00372646
0.00374688
0.00372649
0.00374548
0.00372758
0.00374688
0.00372649
0.00374548
0.00372758
0.00377235
0.00375155
0.00377234
0.00375155
0.00374542
0.00372712
0.00372712
0.00374633
0.00374633
0.00372608
0.00374502
0.00372607
0.00374502
0.00371962
0.00369994
0.00371962
0.00369994
0.00372059
0.00372059
0.00370042
0.00370074
0.00370074
0.00367359
0.00369327
0.00367359
0.00369327
0.00369324
0.00367424
0.00367424
0.00369405
0.00369405
0.00370124
0.00372
0.00372103
0.00370023
0.00370033
0.00372028
0.00371675
0.00370363
0.00371985
0.0037006
0.00370359
0.00370033
0.00372028
0.00371675
0.00370363
0.00371985
0.0037006
0.00370359
0.00369454
0.00367381
0.00369355
0.00367471
0.00369454
0.00367381
0.00369355
0.00367471
0.00369362
0.00369051
0.00367422
0.0036774
0.00369389
0.00369047
0.00367406
0.00369362
0.00369051
0.00367422
0.0036774
0.00369389
0.00369047
0.00367406
0.00372059
0.00372059
0.00370042
0.00370074
0.00370075
0.00371962
0.00369994
0.00367359
0.00369327
0.00369324
0.00367424
0.00367424
0.00369405
0.00369405
0.00367359
0.00369327
0.00370033
0.00372028
0.00371675
0.00370363
0.00371985
0.0037006
0.00370359
0.00370124
0.00372
0.00372103
0.00370023
0.00370033
0.00371675
0.00372028
0.00370363
0.00371985
0.00370359
0.00370059
0.00369454
0.00367381
0.00369355
0.00367471
0.00369361
0.00369051
0.00367422
0.0036774
0.00369389
0.00369047
0.00367406
0.00369454
0.00367381
0.00369355
0.00367471
0.00369362
0.00369051
0.0036774
0.00367422
0.00369047
0.00369389
0.00367406
0.00370124
0.00372
0.00372103
0.00370023
0.00370033
0.00371675
0.00372028
0.00370363
0.00371985
0.00370359
0.0037006
0.00370124
0.00372
0.00372103
0.00370023
0.00369362
0.00369051
0.00367422
0.0036774
0.00369389
0.00369047
0.00367406
0.00369454
0.00367381
0.00369355
0.00367471
0.00369362
0.00369051
0.0036774
0.00367422