/*--------------------------------*- C++ -*----------------------------------*\
| =========                 |                                                 |
| \\      /  F ield         | OpenFOAM: The Open Source CFD Toolbox           |
|  \\    /   O peration     | Version:  v1912                                 |
|   \\  /    A nd           | Website:  www.openfoam.com                      |
|    \\/     M anipulation  |                                                 |
\*---------------------------------------------------------------------------*/
FoamFile
{
    version     2.0;
    format      ascii;
    class       surfaceScalarField;
    location    "40";
    object      phi;
}
// * * * * * * * * * * * * * * * * * * * * * * * * * * * * * * * * * * * * * //

dimensions      [0 3 -1 0 0 0 0];
oriented        oriented;


internalField   nonuniform List<scalar> 
165607
(
-0.00104215
-1.46068e-05
-1.45031e-05
9.36379e-06
9.19389e-06
0.0010527
-0.000261455
-5.65753e-06
1.44837e-05
6.88165e-06
0.00105938
-4.5694e-06
-1.60024e-06
-2.1973e-06
-2.55214e-06
-6.6499e-06
-7.05717e-06
-3.17027e-06
-0.000263289
-0.000259726
-0.000262822
-0.000261432
-5.66255e-06
1.45127e-05
6.97133e-06
0.00105917
-4.57458e-06
-1.61037e-06
-2.20492e-06
-2.55653e-06
-6.64396e-06
-7.05336e-06
-3.17236e-06
-0.000259698
-0.000263261
-0.000262786
-0.000260567
5.63314e-06
5.67313e-06
-4.87186e-06
-4.86594e-06
0.000258998
-1.62234e-06
-1.62406e-06
-0.00106075
8.95318e-07
8.95939e-07
0.0010622
-0.00106267
-1.60933e-06
1.61791e-06
7.68339e-07
0.00106396
-6.67698e-07
8.2095e-07
-1.34137e-07
3.93651e-07
-7.99418e-07
-1.4178e-06
-2.60278e-07
-0.00106235
-1.60423e-06
1.62857e-06
7.63636e-07
0.00106363
-6.67669e-07
8.15432e-07
-1.3418e-07
3.91025e-07
-8.01961e-07
-1.41745e-06
-2.57785e-07
-0.000261557
1.6421e-06
1.60438e-06
-6.90281e-07
-6.93446e-07
0.000259694
-1.36298e-06
-1.36462e-06
-0.00106642
6.88365e-07
6.89057e-07
0.00106777
-0.00106791
-1.56822e-06
1.36923e-06
6.61355e-07
0.00106926
-6.37819e-07
8.72642e-07
-9.24594e-08
4.42775e-07
-7.89778e-07
-1.38788e-06
-2.21173e-07
-0.00106758
-1.56293e-06
1.36404e-06
6.66688e-07
0.00106893
-6.37813e-07
8.672e-07
-9.24294e-08
4.42719e-07
-7.897e-07
-1.38229e-06
-2.18694e-07
-0.000262793
1.5985e-06
1.56308e-06
-6.59259e-07
-6.67443e-07
0.000260958
-1.34754e-06
-1.34901e-06
-0.00107187
6.71744e-07
6.72507e-07
0.00107323
-0.00107327
-1.56885e-06
1.34858e-06
6.44771e-07
0.00107458
-6.35583e-07
8.95889e-07
-6.93142e-08
4.57772e-07
-7.90922e-07
-1.3935e-06
-2.01881e-07
-0.00107293
-1.56351e-06
1.34843e-06
6.44849e-07
0.00107424
-6.3285e-07
8.90417e-07
-7.16369e-08
4.57718e-07
-7.93407e-07
-1.39326e-06
-1.99398e-07
-0.000264073
1.5967e-06
1.56374e-06
-6.50284e-07
-6.55924e-07
0.000262219
-1.30193e-06
-1.30322e-06
-0.00107722
6.48003e-07
6.48822e-07
0.00107853
-0.00107844
-1.56102e-06
1.30286e-06
6.1632e-07
0.0010797
-6.2171e-07
9.22161e-07
-4.68853e-08
4.79037e-07
-7.78266e-07
-1.39152e-06
-1.7609e-07
-0.00107811
-1.55561e-06
1.30265e-06
6.16328e-07
0.00107936
-6.18939e-07
9.16697e-07
-4.91377e-08
4.78969e-07
-7.80763e-07
-1.3913e-06
-1.73605e-07
-0.000265293
1.58901e-06
1.55585e-06
-6.32958e-07
-6.38611e-07
0.000263419
-1.24891e-06
-1.25008e-06
-0.00108237
6.20947e-07
6.21779e-07
0.00108363
-0.00108338
-1.55033e-06
1.24969e-06
5.87947e-07
0.00108457
-6.06198e-07
9.4625e-07
-2.81919e-08
5.00567e-07
-7.59123e-07
-1.38262e-06
-1.51564e-07
-0.00108304
-1.54488e-06
1.24949e-06
5.87906e-07
0.00108423
-6.03399e-07
9.40778e-07
-3.03628e-08
5.00469e-07
-7.61641e-07
-1.38243e-06
-1.49093e-07
-0.000266439
1.57848e-06
1.54512e-06
-6.13559e-07
-6.19253e-07
0.000264548
-1.18168e-06
-1.18261e-06
-0.00108732
5.90287e-07
5.91138e-07
0.0010885
-0.00108806
-1.53647e-06
1.18231e-06
5.54247e-07
0.00108918
-5.87095e-07
9.69861e-07
-1.13598e-08
5.2602e-07
-7.31904e-07
-1.36522e-06
-1.25495e-07
-0.00108772
-1.53105e-06
1.18216e-06
5.54374e-07
0.00108884
-5.84329e-07
9.64325e-07
-1.33886e-08
5.25871e-07
-7.3454e-07
-1.36508e-06
-1.23123e-07
-0.000267508
1.56483e-06
1.53134e-06
-5.92128e-07
-5.97784e-07
0.000265602
-9.96976e-07
-9.97621e-07
-0.00109186
4.91038e-07
4.9168e-07
0.00109287
-0.00109235
-1.4941e-06
9.97711e-07
4.62807e-07
0.0010933
-5.35167e-07
1.01686e-06
4.56231e-08
5.92224e-07
-6.61548e-07
-1.30473e-06
-6.51848e-08
-0.00109201
-1.48855e-06
9.97528e-07
4.62875e-07
0.00109295
-5.32286e-07
1.01142e-06
4.25717e-08
5.92203e-07
-6.64019e-07
-1.30446e-06
-6.27273e-08
-0.00026847
1.52228e-06
1.48862e-06
-5.40475e-07
-5.46031e-07
0.000266546
-5.65214e-07
-5.65872e-07
-0.00109518
3.02736e-07
3.03061e-07
0.00109571
-0.00109535
-1.38262e-06
5.65733e-07
2.64531e-07
0.00109576
-4.15458e-07
1.12682e-06
1.6478e-07
7.65568e-07
-4.76532e-07
-1.12773e-06
1.1234e-07
-0.00109501
-1.37716e-06
5.65626e-07
2.64496e-07
0.00109541
-4.1256e-07
1.12126e-06
1.61866e-07
7.65423e-07
-4.79016e-07
-1.12755e-06
1.153e-07
-0.000269118
1.41111e-06
1.37724e-06
-3.94774e-07
-4.00153e-07
0.000267124
-2.73449e-07
-2.73966e-07
-0.00109678
1.60814e-07
1.60784e-07
0.00109701
-0.00109643
-1.30881e-06
2.73725e-07
1.44922e-07
0.00109653
-3.41274e-07
1.19269e-06
2.31636e-07
8.64432e-07
-3.63358e-07
-1.01868e-06
2.16929e-07
-0.00109608
-1.30336e-06
2.7376e-07
1.45079e-07
0.00109619
-3.38508e-07
1.18713e-06
2.28745e-07
8.64278e-07
-3.65986e-07
-1.01849e-06
2.19676e-07
-0.000269269
1.33747e-06
1.30343e-06
-3.02237e-07
-3.07647e-07
0.000267238
-7.40559e-08
-7.41121e-08
-0.00109739
4.64598e-08
4.64359e-08
0.00109744
-0.00109667
-1.26224e-06
7.39272e-08
4.41215e-08
0.00109668
-2.96177e-07
1.23497e-06
2.67231e-07
9.20542e-07
-3.06069e-07
-9.56231e-07
2.68738e-07
-0.00109632
-1.25675e-06
7.40079e-08
4.41463e-08
0.00109633
-2.96153e-07
1.22947e-06
2.67227e-07
9.20359e-07
-3.08795e-07
-9.56091e-07
2.71463e-07
-0.000269258
1.29097e-06
1.25691e-06
-2.53123e-07
-2.58443e-07
0.000267222
-8.48302e-09
-8.34113e-09
-0.00109751
5.27657e-09
5.31634e-09
0.00109751
-0.00109668
-1.24726e-06
8.40257e-09
9.30663e-09
0.00109668
-2.8301e-07
1.24743e-06
2.78318e-07
9.35267e-07
-2.90305e-07
-9.38683e-07
2.82263e-07
-0.00109634
-1.24178e-06
8.41254e-09
9.31013e-09
0.00109634
-2.82998e-07
1.2419e-06
2.78286e-07
9.35105e-07
-2.93008e-07
-9.38537e-07
2.85033e-07
-0.000269242
1.27595e-06
1.2419e-06
-2.38925e-07
-2.44213e-07
0.000267208
1.04718e-09
1.27875e-09
-0.00109752
-1.41577e-09
-1.33256e-09
0.00109752
-0.00109668
-1.24542e-06
-1.28547e-09
4.57066e-09
0.00109668
-2.81491e-07
1.24882e-06
2.79495e-07
9.36943e-07
-2.88374e-07
-9.36552e-07
2.83817e-07
-0.00109633
-1.23994e-06
-1.27909e-09
4.5518e-09
0.00109633
-2.81478e-07
1.2433e-06
2.79466e-07
9.36777e-07
-2.91073e-07
-9.36405e-07
2.86585e-07
-0.000269239
1.27409e-06
1.24004e-06
-2.37408e-07
-2.42694e-07
0.000267205
1.97076e-09
2.1599e-09
-0.00109752
-2.10865e-09
-2.05254e-09
0.00109752
-0.00109668
-1.24528e-06
-2.19816e-09
4.27268e-09
0.00109668
-2.8137e-07
1.2489e-06
2.79537e-07
9.37039e-07
-2.88244e-07
-9.36383e-07
2.83858e-07
-0.00109633
-1.23978e-06
-2.20237e-09
4.23022e-09
0.00109633
-2.81337e-07
1.24339e-06
2.79521e-07
9.36869e-07
-2.90944e-07
-9.3624e-07
2.86627e-07
-0.000269238
1.27395e-06
1.2399e-06
-2.37319e-07
-2.42608e-07
0.000267204
1.9246e-09
2.1542e-09
-0.00109752
-2.0945e-09
-2.04865e-09
0.00109752
-0.00109668
-1.24526e-06
-2.18321e-09
4.27824e-09
0.00109667
-2.81359e-07
1.24888e-06
2.79499e-07
9.37018e-07
-2.88247e-07
-9.36389e-07
2.83833e-07
-0.00109633
-1.23977e-06
-2.15142e-09
4.22906e-09
0.00109633
-2.81334e-07
1.24336e-06
2.79482e-07
9.36838e-07
-2.90962e-07
-9.36255e-07
2.86585e-07
-0.000269238
1.27395e-06
1.2399e-06
-2.3734e-07
-2.42624e-07
0.000267204
1.92635e-09
2.20714e-09
-0.00109752
-2.13188e-09
-2.0575e-09
0.00109752
-0.00109667
-1.24528e-06
-2.22435e-09
4.31154e-09
0.00109667
-2.81371e-07
1.24886e-06
2.79481e-07
9.37022e-07
-2.8824e-07
-9.36385e-07
2.83839e-07
-0.00109633
-1.23975e-06
-2.23504e-09
4.1992e-09
0.00109633
-2.81305e-07
1.24337e-06
2.79488e-07
9.36843e-07
-2.90953e-07
-9.3625e-07
2.8659e-07
-0.000269238
1.27391e-06
1.23986e-06
-2.3731e-07
-2.42591e-07
0.000267204
2.0008e-09
2.27385e-09
-0.00109752
-2.16711e-09
-2.10475e-09
0.00109752
-0.00109667
-1.24521e-06
-2.30465e-09
4.22638e-09
0.00109667
-2.81313e-07
1.24888e-06
2.79472e-07
9.37026e-07
-2.88235e-07
-9.36378e-07
2.83838e-07
-0.00109633
-1.23972e-06
-2.35218e-09
4.13858e-09
0.00109633
-2.81281e-07
1.24339e-06
2.79507e-07
9.36861e-07
-2.90935e-07
-9.36231e-07
2.86607e-07
-0.000269238
1.2739e-06
1.23985e-06
-2.373e-07
-2.42584e-07
0.000267204
1.98334e-09
2.23185e-09
-0.00109752
-2.13835e-09
-2.09198e-09
0.00109752
-0.00109667
-1.24522e-06
-2.25349e-09
4.24263e-09
0.00109667
-2.81318e-07
1.24888e-06
2.79465e-07
9.37017e-07
-2.88245e-07
-9.36391e-07
2.8383e-07
-0.00109633
-1.23974e-06
-2.24902e-09
4.1771e-09
0.00109633
-2.81304e-07
1.24337e-06
2.79487e-07
9.36841e-07
-2.90959e-07
-9.36252e-07
2.86585e-07
-0.000269238
1.27392e-06
1.23987e-06
-2.37315e-07
-2.42599e-07
0.000267204
1.77168e-09
2.16848e-09
-0.00109752
-2.06407e-09
-1.97615e-09
0.00109752
-0.00109667
-1.24527e-06
-2.18064e-09
4.36876e-09
0.00109667
-2.8138e-07
1.24882e-06
2.79405e-07
9.37011e-07
-2.88262e-07
-9.36403e-07
2.8382e-07
-0.00109633
-1.23976e-06
-2.22448e-09
4.21367e-09
0.00109633
-2.81317e-07
1.24336e-06
2.79477e-07
9.36835e-07
-2.90966e-07
-9.36261e-07
2.86578e-07
-0.000269238
1.27392e-06
1.23987e-06
-2.37321e-07
-2.42602e-07
0.000267204
1.92301e-09
2.14593e-09
-0.00109752
-2.06195e-09
-2.02223e-09
0.00109752
-0.00109668
-1.24519e-06
-2.29671e-09
4.18585e-09
0.00109668
-2.81279e-07
1.2489e-06
2.79522e-07
9.37019e-07
-2.88228e-07
-9.36381e-07
2.83842e-07
-0.00109633
-1.23974e-06
-2.3188e-09
4.17794e-09
0.00109633
-2.81295e-07
1.24338e-06
2.79496e-07
9.3685e-07
-2.90945e-07
-9.36244e-07
2.86598e-07
-0.000269238
1.27391e-06
1.23987e-06
-2.37314e-07
-2.42595e-07
0.000267204
1.83711e-09
1.99534e-09
-0.00109751
-2.07106e-09
-2.10934e-09
0.00109751
-0.00109668
-1.24523e-06
-2.21664e-09
4.23647e-09
0.00109668
-2.84137e-07
1.24887e-06
2.82269e-07
9.37007e-07
-2.88287e-07
-9.36402e-07
2.83839e-07
-0.00109633
-1.23975e-06
-2.22866e-09
4.19628e-09
0.00109633
-2.81307e-07
1.24337e-06
2.79481e-07
9.36837e-07
-2.90959e-07
-9.36254e-07
2.86582e-07
-0.000269238
1.27393e-06
1.23987e-06
-2.37324e-07
-2.4261e-07
0.000267204
2.01544e-09
2.16575e-09
-0.00109752
-2.09926e-09
-2.09884e-09
0.00109752
-0.00109667
-1.24521e-06
-2.22548e-09
4.21478e-09
0.00109667
-2.84151e-07
1.24887e-06
2.82317e-07
9.37005e-07
-2.88283e-07
-9.36399e-07
2.8384e-07
-0.00109633
-1.23975e-06
-2.21986e-09
4.19364e-09
0.00109633
-2.81307e-07
1.24337e-06
2.79484e-07
9.36835e-07
-2.90961e-07
-9.36258e-07
2.86582e-07
-0.000269238
1.27392e-06
1.23987e-06
-2.37314e-07
-2.42599e-07
0.000267204
2.03389e-09
2.20861e-09
-0.00109752
-2.13223e-09
-2.11056e-09
0.00109752
-0.00109667
-1.24521e-06
-2.24411e-09
4.22869e-09
0.00109667
-2.8415e-07
1.24887e-06
2.82317e-07
9.37014e-07
-2.88278e-07
-9.36389e-07
2.83843e-07
-0.00109633
-1.23974e-06
-2.2524e-09
4.18074e-09
0.00109633
-2.81302e-07
1.24337e-06
2.79486e-07
9.36842e-07
-2.90952e-07
-9.36248e-07
2.86587e-07
-0.000269238
1.27391e-06
1.23986e-06
-2.37308e-07
-2.42594e-07
0.000267204
2.03043e-09
2.22149e-09
-0.00109752
-2.1409e-09
-2.11702e-09
0.00109752
-0.00109667
-1.2452e-06
-2.24733e-09
4.20688e-09
0.00109667
-2.84142e-07
1.24887e-06
2.82326e-07
9.37012e-07
-2.88279e-07
-9.36393e-07
2.83843e-07
-0.00109633
-1.23974e-06
-2.2408e-09
4.16474e-09
0.00109633
-2.81294e-07
1.24338e-06
2.79494e-07
9.36837e-07
-2.90957e-07
-9.36254e-07
2.86584e-07
-0.000269238
1.27392e-06
1.23986e-06
-2.37313e-07
-2.42598e-07
0.000267204
2.03051e-09
2.23686e-09
-0.00109752
-2.14212e-09
-2.12027e-09
0.00109752
-0.00109667
-1.2452e-06
-2.26761e-09
4.20451e-09
0.00109667
-2.84137e-07
1.24887e-06
2.82329e-07
9.37015e-07
-2.88273e-07
-9.36386e-07
2.83845e-07
-0.00109633
-1.23974e-06
-2.24277e-09
4.1673e-09
0.00109633
-2.81299e-07
1.24337e-06
2.79489e-07
9.36839e-07
-2.90954e-07
-9.36251e-07
2.86584e-07
-0.000269238
1.27392e-06
1.23986e-06
-2.37309e-07
-2.42597e-07
0.000267204
2.00247e-09
2.22457e-09
-0.00109752
-2.13447e-09
-2.11222e-09
0.00109752
-0.00109667
-1.24521e-06
-2.23276e-09
4.22572e-09
0.00109667
-2.8415e-07
1.24886e-06
2.82317e-07
9.37008e-07
-2.88279e-07
-9.3639e-07
2.83834e-07
-0.00109633
-1.23974e-06
-2.22145e-09
4.18065e-09
0.00109633
-2.81303e-07
1.24337e-06
2.79483e-07
9.36831e-07
-2.90957e-07
-9.36253e-07
2.86573e-07
-0.000269238
1.27392e-06
1.23987e-06
-2.37316e-07
-2.42602e-07
0.000267204
2.00567e-09
2.24561e-09
-0.00109752
-2.13607e-09
-2.11953e-09
0.00109752
-0.00109667
-1.2452e-06
-2.24036e-09
4.21209e-09
0.00109667
-2.84139e-07
1.24887e-06
2.82323e-07
9.37005e-07
-2.88269e-07
-9.36386e-07
2.83833e-07
-0.00109633
-1.23974e-06
-2.21762e-09
4.17901e-09
0.00109633
-2.81297e-07
1.24337e-06
2.79483e-07
9.36824e-07
-2.90949e-07
-9.3625e-07
2.86568e-07
-0.000269238
1.27392e-06
1.23986e-06
-2.37307e-07
-2.42595e-07
0.000267204
1.9563e-09
2.22361e-09
-0.00109752
-2.10889e-09
-2.09657e-09
0.00109752
-0.00109667
-1.24521e-06
-2.22253e-09
4.22798e-09
0.00109667
-2.84143e-07
1.24886e-06
2.8231e-07
9.36994e-07
-2.88261e-07
-9.36378e-07
2.83818e-07
-0.00109633
-1.23974e-06
-2.21058e-09
4.18248e-09
0.00109633
-2.81294e-07
1.24336e-06
2.79473e-07
9.36811e-07
-2.90935e-07
-9.36237e-07
2.86551e-07
-0.000269238
1.27392e-06
1.23987e-06
-2.37316e-07
-2.42603e-07
0.000267204
1.92458e-09
2.22446e-09
-0.00109752
-2.08487e-09
-2.09466e-09
0.00109752
-0.00109667
-1.2452e-06
-2.22551e-09
4.22582e-09
0.00109667
-2.84125e-07
1.24885e-06
2.82298e-07
9.36968e-07
-2.88235e-07
-9.36355e-07
2.8379e-07
-0.00109633
-1.23973e-06
-2.20738e-09
4.19378e-09
0.00109633
-2.81275e-07
1.24335e-06
2.79451e-07
9.36779e-07
-2.90901e-07
-9.36207e-07
2.86514e-07
-0.000269238
1.27391e-06
1.23985e-06
-2.37296e-07
-2.42582e-07
0.000267204
1.82192e-09
2.2829e-09
-0.00109752
-2.11091e-09
3.30026e-09
0.00109751
-0.00109668
-1.24515e-06
-2.21944e-09
4.18335e-09
0.00109668
-2.84066e-07
1.24881e-06
2.82256e-07
9.3691e-07
-2.88173e-07
-9.36289e-07
2.83737e-07
-0.00109633
-1.23967e-06
-2.20711e-09
4.16347e-09
-2.81189e-07
1.2433e-06
2.79398e-07
9.36692e-07
-2.9081e-07
-9.36124e-07
2.86449e-07
-0.000269238
1.27388e-06
1.23982e-06
-2.37252e-07
-2.4254e-07
0.000267204
5.21161e-06
5.22245e-06
0.000260569
-0.000259158
-5.92969e-06
-5.91557e-06
5.06483e-06
0.000261404
-0.000258672
-5.95806e-06
3.37249e-06
-5.21168e-06
5.05981e-06
0.000261437
-0.000258687
-5.96606e-06
3.36765e-06
5.21227e-06
0.000260582
-0.000259161
-5.90109e-06
-5.94427e-06
5.05791e-06
0.000261468
-0.000258702
-5.96354e-06
3.36234e-06
5.06464e-06
-5.21393e-06
0.000261412
-0.000258672
3.37755e-06
-5.96824e-06
1.07132e-05
1.06194e-05
-0.000252643
-0.000256072
-0.000255112
-0.000255112
-6.43341e-06
-4.10906e-06
-6.6653e-06
-6.43377e-06
-4.10996e-06
-6.67083e-06
-5.05286e-06
0.00104217
1.06728e-05
1.06247e-05
-0.000252645
-0.00025607
-0.000255115
-0.000255115
-6.43602e-06
-4.10933e-06
-6.66803e-06
-6.43123e-06
-4.10474e-06
-6.66325e-06
-5.05251e-06
0.00104205
1.0733e-05
1.06853e-05
-0.000252638
-0.000256065
-0.000255112
-0.000255107
-6.43588e-06
-4.11671e-06
-6.66797e-06
-6.43608e-06
-4.10698e-06
-6.66559e-06
-5.0672e-06
-5.05532e-06
0.00104212
1.07284e-05
1.06296e-05
-0.00025264
-0.000256067
-0.000255112
-0.000255112
-6.43077e-06
-4.11166e-06
-6.66297e-06
-6.4362e-06
-4.1098e-06
-6.6683e-06
-0.000258697
-5.9559e-06
3.3573e-06
-5.21151e-06
0.000261399
-0.000258669
3.37253e-06
-5.95798e-06
5.21466e-06
0.000260562
-0.000259145
-5.90338e-06
-5.94156e-06
-0.000258682
3.36483e-06
-5.95304e-06
-5.22242e-06
0.000261465
-0.000258697
3.35983e-06
-5.96101e-06
-0.000259156
-5.92955e-06
-5.91559e-06
5.63342e-06
5.67048e-06
-4.87217e-06
-4.86594e-06
0.000259003
-8.22553e-07
-7.86417e-07
0.000261567
-0.000259436
-2.64677e-07
-2.57223e-07
7.13396e-06
0.00105879
-4.56684e-06
-1.55401e-06
-2.19208e-06
-2.55328e-06
-6.66426e-06
-7.063e-06
-3.17714e-06
-0.000263251
-0.000259683
-0.000262786
-5.64386e-06
1.45802e-05
7.07335e-06
0.00105915
-4.58603e-06
-1.54641e-06
-2.19518e-06
-2.56408e-06
-6.69579e-06
-7.07982e-06
-3.19283e-06
-0.000263325
-0.000259713
-0.000262827
0.00106192
1.95901e-06
-0.00106087
9.12849e-07
-1.71874e-06
-1.45725e-07
-6.95661e-07
-1.47604e-06
-2.63745e-07
-8.13079e-07
3.72303e-07
8.3067e-07
0.00106234
1.95949e-06
-0.00106128
9.07819e-07
-1.72918e-06
-1.38451e-07
-7.01217e-07
-1.48182e-06
-2.63851e-07
-8.1337e-07
3.77745e-07
-4.87031e-06
-4.86279e-06
0.000259014
-7.89133e-07
0.000261593
-0.000259457
-2.61971e-07
-2.54343e-07
6.85533e-06
0.00105962
-4.5911e-06
-1.61298e-06
-2.20815e-06
-2.56246e-06
-6.67834e-06
-7.07526e-06
-3.18812e-06
-0.000263346
-0.000259741
-0.00026284
-5.64354e-06
1.46145e-05
7.16757e-06
0.00105893
-4.58582e-06
-1.55644e-06
-2.2002e-06
-2.56615e-06
-6.69506e-06
-7.07883e-06
-3.1925e-06
-0.000259683
-0.000263302
-0.000262799
0.00106293
1.96666e-06
-0.00106187
9.01482e-07
-1.68874e-06
-1.48169e-07
-6.95954e-07
-1.47901e-06
-2.63783e-07
-8.10726e-07
3.74779e-07
8.19951e-07
0.00106203
1.96968e-06
-0.001061
9.23068e-07
-1.71889e-06
-1.43342e-07
-6.95885e-07
-1.47882e-06
-2.61297e-07
-8.15794e-07
3.72276e-07
1.46114e-05
7.1549e-06
0.00105874
-4.56675e-06
-1.55388e-06
-2.18943e-06
-2.55335e-06
-6.66429e-06
-3.17721e-06
-7.06077e-06
-0.000259678
-0.000263246
-0.000262781
1.96595e-06
-0.00106162
9.06768e-07
-1.68863e-06
-1.45564e-07
-6.9301e-07
-1.47628e-06
-2.66113e-07
3.69491e-07
-8.10472e-07
8.19914e-07
0.00106181
1.96938e-06
-0.00106079
9.23124e-07
-1.7188e-06
-1.43244e-07
-6.95641e-07
-1.47868e-06
-2.63701e-07
-8.12994e-07
3.74881e-07
-4.87503e-06
-4.86263e-06
0.000258993
-7.80944e-07
0.000261544
-0.000259419
-2.65052e-07
-2.59663e-07
1.45129e-05
6.8739e-06
0.00105957
-4.59127e-06
-1.61298e-06
-2.20822e-06
-2.56228e-06
-6.67816e-06
-3.18802e-06
-7.07252e-06
-0.000259731
-0.000263343
-0.000262835
1.97103e-06
-0.00106132
9.22142e-07
-1.68617e-06
-1.48027e-07
-6.95687e-07
-1.47314e-06
-2.61227e-07
3.69541e-07
-8.13031e-07
7.81036e-07
0.00106284
1.9716e-06
-0.00106179
9.11802e-07
-1.68371e-06
-1.48166e-07
-6.93343e-07
-1.47626e-06
-2.63631e-07
-8.13176e-07
3.6968e-07
-0.000259434
-2.62189e-07
-2.59881e-07
1.64211e-06
1.60685e-06
-6.87613e-07
-6.9597e-07
0.000259702
-9.00449e-07
-8.61425e-07
0.000262806
-0.000260642
-2.05127e-07
-1.97472e-07
7.69633e-07
0.0010632
-6.70254e-07
8.54452e-07
-1.29418e-07
3.93803e-07
-7.99354e-07
-1.42013e-06
-2.60223e-07
-1.64743e-06
1.623e-06
7.64419e-07
0.00106362
-6.73171e-07
8.62542e-07
-1.29438e-07
3.99254e-07
-8.0231e-07
-1.42591e-06
-2.57939e-07
0.00106714
1.391e-06
-0.00106581
6.76569e-07
-1.60299e-06
-9.00234e-08
-6.45629e-07
-1.38472e-06
-2.24404e-07
-7.86756e-07
4.39264e-07
9.05834e-07
0.00106758
1.39134e-06
-0.00106624
6.71468e-07
-1.60834e-06
-9.0145e-08
-6.4589e-07
-1.38777e-06
-2.24497e-07
-7.87095e-07
4.42085e-07
-6.88053e-07
-6.95343e-07
0.00025972
-8.66696e-07
0.000262832
-0.000260654
-2.05157e-07
-2.00001e-07
7.63076e-07
0.00106422
-6.67922e-07
8.18262e-07
-1.31829e-07
3.96313e-07
-8.02355e-07
-1.42323e-06
-2.57881e-07
-1.64216e-06
1.62827e-06
7.69699e-07
0.00106331
-6.7315e-07
8.54499e-07
-1.2947e-07
3.93835e-07
-8.02051e-07
-1.42031e-06
-2.57782e-07
0.00106817
1.39254e-06
-0.00106685
6.75446e-07
-1.56499e-06
-9.47744e-08
-6.40651e-07
-1.38242e-06
-2.22022e-07
-7.87083e-07
4.41963e-07
8.95153e-07
0.00106725
1.39109e-06
-0.00106593
6.76633e-07
-1.60043e-06
-9.25165e-08
-6.45822e-07
-1.38485e-06
-2.24355e-07
-7.86802e-07
4.42088e-07
1.62284e-06
7.69712e-07
0.0010631
-6.7293e-07
8.51799e-07
-1.31806e-07
3.93749e-07
-8.01976e-07
-2.57826e-07
-1.42021e-06
1.39206e-06
-0.00106659
6.8084e-07
-1.57281e-06
-9.71068e-08
-6.40497e-07
-1.38234e-06
-2.22052e-07
4.41811e-07
-7.86909e-07
8.97742e-07
0.00106705
1.3858e-06
-0.00106571
6.76675e-07
-1.60037e-06
-9.24103e-08
-6.45657e-07
-1.38479e-06
-2.24431e-07
-7.86749e-07
4.3928e-07
-6.90792e-07
-6.92854e-07
0.000259682
-8.58591e-07
0.000262781
-0.000260621
-2.05366e-07
-2.00007e-07
1.62356e-06
7.58041e-07
0.00106414
-6.67962e-07
8.12832e-07
-1.36764e-07
3.9108e-07
-7.9956e-07
-2.62608e-07
-1.41774e-06
1.39205e-06
-0.00106626
6.75769e-07
-1.56224e-06
-9.70985e-08
-6.40435e-07
-1.37671e-06
-2.24402e-07
4.33652e-07
-7.86818e-07
8.61274e-07
0.00106808
1.3924e-06
-0.00106675
6.75533e-07
-1.56244e-06
-9.72359e-08
-6.40726e-07
-1.38501e-06
-2.24412e-07
-7.89695e-07
4.39245e-07
-0.000260629
-2.05241e-07
-2.00152e-07
1.6011e-06
1.56827e-06
-6.56542e-07
-6.64849e-07
0.000260958
-9.23042e-07
-8.8655e-07
0.000264089
-0.000261911
-1.86758e-07
-1.81645e-07
6.62247e-07
0.00106849
-6.45698e-07
9.06372e-07
-8.54258e-08
4.42925e-07
-7.87014e-07
-1.38233e-06
-2.23515e-07
-1.60649e-06
1.36343e-06
6.72885e-07
0.00106891
-6.45939e-07
9.11826e-07
-8.54894e-08
4.48519e-07
-7.89984e-07
-1.38801e-06
-2.18776e-07
0.0010725
1.35936e-06
-0.00107118
6.53472e-07
-1.60329e-06
-7.30664e-08
-6.41247e-07
-1.39288e-06
-2.10647e-07
-7.90261e-07
4.52731e-07
9.28565e-07
0.00107292
1.35978e-06
-0.0010716
6.53722e-07
-1.60864e-06
-7.07512e-08
-6.44137e-07
-1.40124e-06
-2.0587e-07
-7.95862e-07
4.6111e-07
-6.5956e-07
-6.61804e-07
0.000260979
-8.8925e-07
0.000264118
-0.000261937
-1.84098e-07
-1.78853e-07
6.61185e-07
0.00106953
-6.43409e-07
8.69995e-07
-9.01562e-08
4.45595e-07
-7.89939e-07
-1.38794e-06
-2.18724e-07
-1.5985e-06
1.36329e-06
6.6762e-07
0.0010686
-6.45905e-07
9.03768e-07
-8.54808e-08
4.45738e-07
-7.89659e-07
-1.38509e-06
-2.18609e-07
0.00107353
1.36086e-06
-0.00107221
6.52473e-07
-1.56763e-06
-7.53933e-08
-6.38867e-07
-1.39583e-06
-2.05835e-07
-7.95857e-07
4.5545e-07
9.2313e-07
0.0010726
1.35962e-06
-0.00107128
6.53702e-07
-1.60331e-06
-7.07289e-08
-6.4409e-07
-1.39555e-06
-2.0571e-07
-7.95539e-07
4.5556e-07
1.3682e-06
6.62369e-07
0.0010684
-6.4304e-07
9.0103e-07
-9.01641e-08
4.45603e-07
-7.89637e-07
-2.21119e-07
-1.38506e-06
1.36045e-06
-0.00107194
6.52643e-07
-1.57021e-06
-7.52881e-08
-6.38689e-07
-1.39313e-06
-2.08294e-07
4.52601e-07
-7.93094e-07
9.1766e-07
0.0010724
1.35932e-06
-0.00107108
6.53624e-07
-1.59802e-06
-7.53889e-08
-6.38527e-07
-1.39294e-06
-2.08239e-07
-7.92878e-07
4.52722e-07
-6.59652e-07
-6.64352e-07
0.000260943
-8.8378e-07
0.000264068
-0.000261896
-1.86821e-07
-1.78912e-07
1.36438e-06
6.66501e-07
0.00106943
-6.38112e-07
8.61896e-07
-9.49499e-08
4.42953e-07
-7.87262e-07
-2.21116e-07
-1.38265e-06
1.3603e-06
-0.00107161
6.52716e-07
-1.56488e-06
-7.76174e-08
-6.3596e-07
-1.39281e-06
-2.0582e-07
4.5261e-07
-7.95594e-07
8.83745e-07
0.00107344
1.36077e-06
-0.00107212
6.52544e-07
-1.56511e-06
-7.77726e-08
-6.36265e-07
-1.39055e-06
-2.08243e-07
-7.93151e-07
4.50056e-07
-0.000261909
-1.84293e-07
-1.79061e-07
1.60198e-06
1.56627e-06
-6.47546e-07
-6.53245e-07
0.000262222
-9.49715e-07
-9.13077e-07
0.000265308
-0.000263129
-1.60886e-07
-1.55699e-07
6.45606e-07
0.00107381
-6.38149e-07
9.29716e-07
-6.71053e-08
4.5789e-07
-7.88099e-07
-1.39328e-06
-2.04241e-07
-1.60733e-06
1.34796e-06
6.45843e-07
0.00107424
-6.41036e-07
9.35251e-07
-6.47947e-08
4.66282e-07
-7.93694e-07
-1.40164e-06
-1.99456e-07
0.00107768
1.31537e-06
-0.00107641
6.24827e-07
-1.59658e-06
-5.00448e-08
-6.28273e-07
-1.39291e-06
-1.85044e-07
-7.79838e-07
4.7347e-07
9.55269e-07
0.0010781
1.31581e-06
-0.00107683
6.251e-07
-1.60195e-06
-4.77695e-08
-6.3116e-07
-1.4013e-06
-1.80247e-07
-7.85445e-07
4.81912e-07
-6.5063e-07
-6.55353e-07
0.000262247
-9.15774e-07
0.000265337
-0.000263155
-1.58214e-07
-1.52902e-07
6.44622e-07
0.00107484
-6.35761e-07
8.93187e-07
-6.94193e-08
4.60613e-07
-7.93694e-07
-1.39622e-06
-1.9943e-07
-1.60199e-06
1.3478e-06
6.45828e-07
0.00107392
-6.40987e-07
9.29811e-07
-6.47731e-08
4.60731e-07
-7.93377e-07
-1.39594e-06
-1.99299e-07
0.00107871
1.3167e-06
-0.00107744
6.23832e-07
-1.56073e-06
-5.23096e-08
-6.25856e-07
-1.39585e-06
-1.80213e-07
-7.85444e-07
4.76247e-07
9.49813e-07
0.00107778
1.3156e-06
-0.00107651
6.25047e-07
-1.59659e-06
-4.7746e-08
-6.31109e-07
-1.39556e-06
-1.80092e-07
-7.85127e-07
4.76341e-07
1.34749e-06
6.45734e-07
0.00107372
-6.3542e-07
9.24324e-07
-6.94178e-08
4.57883e-07
-7.90709e-07
-2.01835e-07
-1.39333e-06
1.31633e-06
-0.00107717
6.24005e-07
-1.56333e-06
-5.22211e-08
-6.25694e-07
-1.39313e-06
-1.82677e-07
4.73386e-07
-7.82672e-07
9.4429e-07
0.00107758
1.31532e-06
-0.00107631
6.24941e-07
-1.59129e-06
-5.23232e-08
-6.25531e-07
-1.39297e-06
-1.82626e-07
-7.82457e-07
4.73487e-07
-6.48042e-07
-6.55336e-07
0.000262206
-9.10308e-07
0.000265287
-0.000263113
-1.60909e-07
-1.52965e-07
1.3489e-06
6.4467e-07
0.00107476
-6.33147e-07
8.90381e-07
-7.17856e-08
4.55215e-07
-7.90986e-07
-2.01834e-07
-1.39093e-06
1.31613e-06
-0.00107684
6.2402e-07
-1.55794e-06
-5.44937e-08
-6.22935e-07
-1.39284e-06
-1.80207e-07
4.73373e-07
-7.85193e-07
9.10263e-07
0.00107862
1.31659e-06
-0.00107735
6.23865e-07
-1.55818e-06
-5.46348e-08
-6.23222e-07
-1.39057e-06
-1.82622e-07
-7.82738e-07
4.70814e-07
-0.000263126
-1.58412e-07
-1.53116e-07
1.59429e-06
1.5584e-06
-6.30211e-07
-6.35905e-07
0.000263422
-9.75487e-07
-9.38702e-07
0.000266454
-0.000264275
-1.35344e-07
-1.30071e-07
6.17112e-07
0.00107893
-6.24281e-07
9.56151e-07
-4.47101e-08
4.7913e-07
-7.75435e-07
-1.39134e-06
-1.78451e-07
-1.59967e-06
1.30241e-06
6.17389e-07
0.00107935
-6.27175e-07
9.61704e-07
-4.24569e-08
4.87553e-07
-7.81055e-07
-1.39971e-06
-1.73677e-07
0.00108261
1.2571e-06
-0.0010814
5.9279e-07
-1.58593e-06
-2.97304e-08
-6.12018e-07
-1.38432e-06
-1.58888e-07
-7.605e-07
4.96378e-07
9.81055e-07
0.00108303
1.25762e-06
-0.00108182
5.93133e-07
-1.59134e-06
-2.75446e-08
-6.14914e-07
-1.39273e-06
-1.54085e-07
-7.66112e-07
5.04847e-07
-6.33326e-07
-6.38031e-07
0.000263448
-9.41394e-07
0.000266483
-0.000264301
-1.32657e-07
-1.27284e-07
6.16147e-07
0.00107996
-6.21863e-07
9.19467e-07
-4.69665e-08
4.819e-07
-7.81038e-07
-1.39424e-06
-1.73623e-07
-1.5943e-06
1.30217e-06
6.17323e-07
0.00107903
-6.27114e-07
9.56253e-07
-4.2424e-08
4.82005e-07
-7.80725e-07
-1.39398e-06
-1.73497e-07
0.00108365
1.25826e-06
-0.00108244
5.91829e-07
-1.54991e-06
-3.1923e-08
-6.0958e-07
-1.38722e-06
-1.54054e-07
-7.66107e-07
4.99169e-07
9.75581e-07
0.00108271
1.25733e-06
-0.0010815
5.93076e-07
-1.58594e-06
-2.75155e-08
-6.14855e-07
-1.38696e-06
-1.53925e-07
-7.65792e-07
4.99281e-07
1.30185e-06
6.1721e-07
0.00107883
-6.21536e-07
9.50709e-07
-4.69818e-08
4.7914e-07
-7.78052e-07
-1.76045e-07
-1.39136e-06
1.25793e-06
-0.00108217
5.92055e-07
-1.55255e-06
-3.18573e-08
-6.09449e-07
-1.38449e-06
-1.56532e-07
4.96298e-07
-7.63335e-07
9.70009e-07
0.00108251
1.2569e-06
-0.0010813
5.92861e-07
-1.58064e-06
-3.19494e-08
-6.09271e-07
-1.38432e-06
-1.56425e-07
-7.63074e-07
4.96425e-07
-6.30684e-07
-6.38012e-07
0.000263406
-9.35936e-07
0.000266434
-0.000264259
-1.35325e-07
-1.27353e-07
1.30311e-06
6.16147e-07
0.00107988
-6.19218e-07
9.16655e-07
-4.92753e-08
4.76457e-07
-7.78333e-07
-1.76036e-07
-1.38896e-06
1.25769e-06
-0.00108183
5.91969e-07
-1.5471e-06
-3.40388e-08
-6.06646e-07
-1.38424e-06
-1.54069e-07
4.9626e-07
-7.65876e-07
9.35895e-07
0.00108356
1.25816e-06
-0.00108235
5.91803e-07
-1.54733e-06
-3.41598e-08
-6.06913e-07
-1.38195e-06
-1.56485e-07
-7.63409e-07
4.93686e-07
-0.000264272
-1.32831e-07
-1.27507e-07
1.58377e-06
1.54769e-06
-6.10813e-07
-6.1651e-07
0.00026455
-9.96318e-07
-9.59412e-07
0.000267524
-0.000265347
-1.1344e-07
-1.0809e-07
5.88712e-07
0.0010838
-6.08782e-07
9.80365e-07
-2.6092e-08
5.00648e-07
-7.56274e-07
-1.38243e-06
-1.53921e-07
-1.58916e-06
1.24946e-06
5.88957e-07
0.00108423
-6.11671e-07
9.8596e-07
-2.39156e-08
5.09117e-07
-7.6191e-07
-1.39086e-06
-1.49143e-07
0.00108728
1.20794e-06
-0.00108614
5.68328e-07
-1.5757e-06
-1.47615e-08
-5.96384e-07
-1.37273e-06
-1.36829e-07
-7.3876e-07
5.16488e-07
1.00192e-06
0.00108771
1.20828e-06
-0.00108656
5.68518e-07
-1.58111e-06
-1.26924e-08
-5.99247e-07
-1.38109e-06
-1.31944e-07
-7.44317e-07
5.25079e-07
-6.1395e-07
-6.18652e-07
0.000264576
-9.62148e-07
0.000267553
-0.000265373
-1.10654e-07
-1.05317e-07
5.8777e-07
0.00108484
-6.06334e-07
9.43552e-07
-2.82616e-08
5.03436e-07
-7.61893e-07
-1.38536e-06
-1.49095e-07
-1.58377e-06
1.24917e-06
5.88932e-07
0.0010839
-6.11615e-07
9.80472e-07
-2.38926e-08
5.0356e-07
-7.61566e-07
-1.38506e-06
-1.48958e-07
0.00108833
1.20889e-06
-0.00108718
5.67177e-07
-1.53949e-06
-1.68107e-08
-5.93903e-07
-1.37562e-06
-1.32008e-07
-7.44382e-07
5.19303e-07
9.9642e-07
0.00108739
1.20814e-06
-0.00108624
5.68572e-07
-1.57572e-06
-1.26784e-08
-5.99223e-07
-1.37535e-06
-1.3186e-07
-7.44071e-07
5.1944e-07
1.2487e-06
5.88776e-07
0.0010837
-6.06043e-07
9.74872e-07
-2.83033e-08
5.00708e-07
-7.58821e-07
-1.51436e-07
-1.38243e-06
1.20857e-06
-0.00108691
5.67253e-07
-1.5421e-06
-1.6735e-08
-5.93749e-07
-1.37288e-06
-1.34427e-07
5.16424e-07
-7.41542e-07
9.90772e-07
0.00108718
1.20775e-06
-0.00108604
5.68243e-07
-1.57042e-06
-1.68751e-08
-5.93648e-07
-1.37271e-06
-1.3439e-07
-7.41331e-07
5.16534e-07
-6.11257e-07
-6.18648e-07
0.000264535
-9.56637e-07
0.000267503
-0.000265331
-1.13394e-07
-1.05386e-07
1.24997e-06
5.87747e-07
0.00108475
-6.03664e-07
9.4073e-07
-3.04853e-08
4.97948e-07
-7.59196e-07
-1.51523e-07
-1.38008e-06
1.20837e-06
-0.00108657
5.67171e-07
-1.53665e-06
-1.88216e-08
-5.90947e-07
-1.37265e-06
-1.32051e-07
5.16346e-07
-7.44167e-07
9.56536e-07
0.00108824
1.20882e-06
-0.00108709
5.67148e-07
-1.53694e-06
-1.89564e-08
-5.91231e-07
-1.37035e-06
-1.34447e-07
-7.41683e-07
5.13774e-07
-0.000265344
-1.10985e-07
-1.05551e-07
1.57004e-06
1.53389e-06
-5.8926e-07
-5.94978e-07
0.000265604
-1.03499e-06
-9.95282e-07
0.000268489
-0.00026633
-6.7429e-08
-6.17436e-08
5.55099e-07
0.0010884
-5.89636e-07
1.00684e-06
-7.42361e-09
5.26079e-07
-7.29108e-07
-1.36505e-06
-1.27899e-07
-1.57547e-06
1.18186e-06
5.55106e-07
0.00108883
-5.92539e-07
1.00969e-06
-7.36321e-09
5.34667e-07
-7.34643e-07
-1.37339e-06
-1.23022e-07
0.00109157
1.07039e-06
-0.00109055
5.01551e-07
-1.54709e-06
2.89975e-08
-5.59847e-07
-1.32919e-06
-9.13733e-08
-6.84939e-07
5.63795e-07
1.03785e-06
0.001092
1.07033e-06
-0.00109099
5.01596e-07
-1.54987e-06
2.89712e-08
-5.60025e-07
-1.33474e-06
-8.64693e-08
-6.90374e-07
5.69732e-07
-5.92332e-07
-5.97158e-07
0.00026563
-9.98024e-07
0.000268515
-0.000266356
-6.46574e-08
-5.89995e-08