/*--------------------------------*- C++ -*----------------------------------*\
| =========                 |                                                 |
| \\      /  F ield         | OpenFOAM: The Open Source CFD Toolbox           |
|  \\    /   O peration     | Version:  v1912                                 |
|   \\  /    A nd           | Website:  www.openfoam.com                      |
|    \\/     M anipulation  |                                                 |
\*---------------------------------------------------------------------------*/
FoamFile
{
    version     2.0;
    format      ascii;
    class       volVectorField;
    location    "40";
    object      U;
}
// * * * * * * * * * * * * * * * * * * * * * * * * * * * * * * * * * * * * * //

dimensions      [0 1 -1 0 0 0 0];


internalField   nonuniform List<vector> 
57100
(
(0.000105982 0.000105919 0.100294)
(-0.000188852 0.000120357 0.10038)
(0.000120445 -0.000188855 0.10038)
(-0.000240532 -0.00024055 0.100392)
(9.57221e-05 9.56628e-05 0.100865)
(-0.000152139 9.20889e-05 0.100944)
(9.20973e-05 -0.000152131 0.100944)
(-0.000192773 -0.000192843 0.100967)
(9.74796e-05 9.74562e-05 0.101372)
(-0.000153234 9.03224e-05 0.101449)
(9.03087e-05 -0.000153239 0.101449)
(-0.000197049 -0.000197111 0.101472)
(9.54171e-05 9.5396e-05 0.101893)
(-0.000150452 8.74318e-05 0.101958)
(8.74463e-05 -0.000150455 0.101958)
(-0.000194627 -0.00019468 0.101965)
(9.23414e-05 9.23297e-05 0.102399)
(-0.00014454 8.31068e-05 0.102446)
(8.31238e-05 -0.000144543 0.102446)
(-0.000189202 -0.000189259 0.102433)
(8.86839e-05 8.86785e-05 0.102886)
(-0.000138294 7.89124e-05 0.102912)
(7.89343e-05 -0.000138306 0.102912)
(-0.000182648 -0.00018272 0.102872)
(8.44026e-05 8.44186e-05 0.103352)
(-0.000130266 7.39188e-05 0.103353)
(7.39667e-05 -0.000130283 0.103354)
(-0.000175106 -0.000175162 0.103281)
(7.0355e-05 7.03286e-05 0.103778)
(-0.000110865 6.17814e-05 0.103754)
(6.17784e-05 -0.000110836 0.103754)
(-0.000156354 -0.000156386 0.103648)
(4.28529e-05 4.28401e-05 0.104071)
(-6.098e-05 3.53022e-05 0.104014)
(3.52895e-05 -6.09782e-05 0.104014)
(-0.000107174 -0.00010717 0.103883)
(2.15102e-05 2.14856e-05 0.104207)
(-2.99784e-05 1.98317e-05 0.1041)
(1.98417e-05 -2.99759e-05 0.1041)
(-7.46091e-05 -7.46494e-05 0.103933)
(5.54275e-06 5.53663e-06 0.104255)
(-8.75292e-06 6.48793e-06 0.104118)
(6.48906e-06 -8.76448e-06 0.104118)
(-5.6146e-05 -5.6172e-05 0.103927)
(-1.68774e-08 -9.42252e-09 0.104264)
(-1.80698e-06 1.81372e-06 0.104118)
(1.81425e-06 -1.80833e-06 0.104118)
(-5.0449e-05 -5.04665e-05 0.103921)
(-9.0897e-07 -9.03932e-07 0.104265)
(-7.94513e-07 1.16135e-06 0.104118)
(1.16119e-06 -7.8068e-07 0.104118)
(-4.97922e-05 -4.9809e-05 0.10392)
(-9.90475e-07 -9.88823e-07 0.104265)
(-7.31349e-07 1.11321e-06 0.104118)
(1.11068e-06 -7.21845e-07 0.104117)
(-4.97446e-05 -4.97612e-05 0.10392)
(-9.92707e-07 -9.85607e-07 0.104265)
(-7.20806e-07 1.11373e-06 0.104118)
(1.11018e-06 -7.25376e-07 0.104117)
(-4.97461e-05 -4.9762e-05 0.10392)
(-9.98659e-07 -9.86621e-07 0.104265)
(-7.16933e-07 1.11584e-06 0.104118)
(1.10478e-06 -7.20508e-07 0.104117)
(-4.97337e-05 -4.97492e-05 0.10392)
(-1.00486e-06 -9.93737e-07 0.104265)
(-7.13878e-07 1.10561e-06 0.104117)
(1.0956e-06 -7.11934e-07 0.104117)
(-4.97285e-05 -4.97451e-05 0.10392)
(-1.00134e-06 -9.91727e-07 0.104265)
(-7.1748e-07 1.10844e-06 0.104117)
(1.10129e-06 -7.19922e-07 0.104117)
(-4.97352e-05 -4.97515e-05 0.10392)
(-9.93942e-07 -9.77925e-07 0.104265)
(-7.22029e-07 1.12501e-06 0.104117)
(1.10565e-06 -7.23054e-07 0.104117)
(-4.97379e-05 -4.97525e-05 0.10392)
(-9.90117e-07 -9.82273e-07 0.104265)
(-7.1817e-07 1.09745e-06 0.104118)
(1.10049e-06 -7.15341e-07 0.104117)
(-4.97366e-05 -4.97493e-05 0.10392)
(-9.80051e-07 -9.849e-07 0.104265)
(-7.25127e-07 1.10889e-06 0.104118)
(1.10425e-06 -7.20993e-07 0.104117)
(-4.97387e-05 -4.97549e-05 0.10392)
(-9.94535e-07 -9.93172e-07 0.104265)
(-7.20802e-07 1.1051e-06 0.104118)
(1.10376e-06 -7.21382e-07 0.104117)
(-4.97356e-05 -4.97518e-05 0.10392)
(-9.98209e-07 -9.93794e-07 0.104265)
(-7.18542e-07 1.10518e-06 0.104118)
(1.10203e-06 -7.19228e-07 0.104117)
(-4.97324e-05 -4.97495e-05 0.10392)
(-9.99907e-07 -9.94499e-07 0.104265)
(-7.18067e-07 1.10266e-06 0.104118)
(1.09964e-06 -7.19836e-07 0.104117)
(-4.97341e-05 -4.97513e-05 0.10392)
(-9.99746e-07 -9.94447e-07 0.104265)
(-7.15608e-07 1.10202e-06 0.104118)
(1.10008e-06 -7.19849e-07 0.104117)
(-4.97332e-05 -4.97508e-05 0.10392)
(-9.98837e-07 -9.935e-07 0.104265)
(-7.18994e-07 1.10498e-06 0.104118)
(1.10172e-06 -7.21954e-07 0.104117)
(-4.97355e-05 -4.97522e-05 0.10392)
(-9.98878e-07 -9.94308e-07 0.104265)
(-7.18056e-07 1.10296e-06 0.104118)
(1.10115e-06 -7.21776e-07 0.104117)
(-4.97332e-05 -4.97503e-05 0.10392)
(-9.95259e-07 -9.9208e-07 0.104265)
(-7.18602e-07 1.10502e-06 0.104118)
(1.10203e-06 -7.22437e-07 0.104117)
(-4.97357e-05 -4.97528e-05 0.10392)
(-9.92045e-07 -9.92656e-07 0.104265)
(-7.18341e-07 1.10435e-06 0.104118)
(1.10283e-06 -7.22574e-07 0.104117)
(-4.97273e-05 -4.97441e-05 0.10392)
(-9.90237e-07 -9.94083e-07 0.104265)
(-7.16526e-07 1.09974e-06 0.104118)
(1.0978e-06 -7.21562e-07 0.104117)
(-4.97072e-05 -4.97238e-05 0.10392)
(0.000133909 0.000133896 0.100279)
(0.000122668 0.000150716 0.100225)
(-0.000122662 0.000150693 0.100225)
(-0.000133907 0.000133863 0.100279)
(0.000150737 0.000122622 0.100225)
(0.000150712 -0.000122645 0.100225)
(8.89297e-05 8.88741e-05 0.100148)
(-8.89183e-05 8.88699e-05 0.100148)
(8.89014e-05 -8.89283e-05 0.100148)
(-8.88971e-05 -8.89226e-05 0.100148)
(-0.000150735 0.000122619 0.100225)
(-0.000150725 -0.000122634 0.100225)
(0.000133903 -0.000133929 0.100279)
(0.000122623 -0.000150747 0.100225)
(-0.000122621 -0.000150721 0.100225)
(-0.000133917 -0.000133895 0.100279)
(0.000240577 0.000240545 0.100392)
(0.000100944 0.000100846 0.100892)
(0.000120491 0.000188746 0.10038)
(-0.000120445 0.000188783 0.10038)
(8.26956e-05 0.000136342 0.100825)
(-8.26607e-05 0.000136356 0.100825)
(-0.000240581 0.000240502 0.100392)
(-0.000100916 0.000100794 0.100892)
(0.000188889 0.00012039 0.10038)
(0.000188834 -0.000120464 0.10038)
(0.000136356 8.26551e-05 0.100826)
(0.000136361 -8.26809e-05 0.100826)
(-0.000188816 -0.000120455 0.10038)
(-0.000136315 8.2663e-05 0.100825)
(-0.000136333 -8.26827e-05 0.100825)
(0.000240507 -0.0002406 0.100392)
(0.000100899 -0.00010094 0.100892)
(-0.000120426 -0.000188876 0.10038)
(8.26653e-05 -0.000136309 0.100826)
(-8.26486e-05 -0.000136328 0.100826)
(-0.0001009 -0.000100944 0.100892)
(0.000192847 0.00019272 0.100967)
(9.98916e-05 9.98246e-05 0.101395)
(9.20996e-05 0.00015217 0.100944)
(-9.2075e-05 0.000152177 0.100944)
(9.12984e-05 0.000154036 0.10132)
(-9.12989e-05 0.000154045 0.10132)
(-0.000192822 0.000192663 0.100967)
(-9.98879e-05 9.98165e-05 0.101395)
(0.000152178 9.20702e-05 0.100944)
(0.000152173 -9.20845e-05 0.100944)
(0.000154016 9.13001e-05 0.10132)
(0.000154038 -9.13026e-05 0.101321)
(-0.000152162 -9.20904e-05 0.100944)
(-0.000154005 9.13243e-05 0.10132)
(-0.000154023 -9.12986e-05 0.101321)
(0.000192765 -0.000192853 0.100967)
(9.98657e-05 -9.98903e-05 0.101395)
(-9.2078e-05 -0.000152157 0.100944)
(9.13106e-05 -0.000154003 0.101321)
(-9.13155e-05 -0.000154024 0.101321)
(-9.98838e-05 -9.99068e-05 0.101395)
(0.000197102 0.000196991 0.101472)
(9.18831e-05 9.18172e-05 0.101893)
(9.02883e-05 0.000153277 0.101449)
(-9.02934e-05 0.00015328 0.101449)
(8.8485e-05 0.000151858 0.101832)
(-8.84657e-05 0.00015185 0.101832)
(-0.000197097 0.000196974 0.101472)
(-9.18608e-05 9.18074e-05 0.101893)
(0.000153248 9.03025e-05 0.101449)
(0.000153275 -9.02943e-05 0.101449)
(0.000151812 8.84912e-05 0.101832)
(0.000151833 -8.84629e-05 0.101832)
(-0.000153264 -9.02978e-05 0.101449)
(-0.000151804 8.84894e-05 0.101832)
(-0.000151839 -8.84804e-05 0.101832)
(0.000197029 -0.00019711 0.101472)
(9.18252e-05 -9.18858e-05 0.101893)
(-9.03206e-05 -0.000153267 0.101449)
(8.84978e-05 -0.000151802 0.101832)
(-8.8491e-05 -0.000151817 0.101832)
(-9.19073e-05 -9.19225e-05 0.101893)
(0.000194647 0.000194544 0.101965)
(8.22125e-05 8.21533e-05 0.102366)
(8.74305e-05 0.000150512 0.101958)
(-8.74074e-05 0.000150502 0.101958)
(8.42274e-05 0.000146276 0.102326)
(-8.42047e-05 0.000146268 0.102326)
(-0.000194628 0.000194524 0.101965)
(-8.21885e-05 8.21503e-05 0.102366)
(0.000150466 8.74366e-05 0.101958)
(0.000150484 -8.74046e-05 0.101958)
(0.000146224 8.42317e-05 0.102327)
(0.000146246 -8.41963e-05 0.102327)
(-0.000150492 -8.74237e-05 0.101958)
(-0.000146214 8.42286e-05 0.102326)
(-0.00014626 -8.42205e-05 0.102327)
(0.000194548 -0.000194662 0.101965)
(8.21492e-05 -8.22152e-05 0.102366)
(-8.74335e-05 -0.000150464 0.101958)
(8.42447e-05 -0.000146215 0.102327)
(-8.42249e-05 -0.000146219 0.102327)
(-8.2245e-05 -8.22632e-05 0.102366)
(0.000189215 0.00018912 0.102433)
(7.30954e-05 7.30444e-05 0.102812)
(8.3102e-05 0.000144602 0.102446)
(-8.30788e-05 0.0001446 0.102446)
(7.94914e-05 0.000139312 0.102798)
(-7.94715e-05 0.000139315 0.102798)
(-0.000189197 0.000189107 0.102433)
(-7.3076e-05 7.30481e-05 0.102812)
(0.000144553 8.31088e-05 0.102446)
(0.000144571 -8.30675e-05 0.102446)
(0.000139258 7.94984e-05 0.102798)
(0.000139277 -7.94586e-05 0.102798)
(-0.000144585 -8.30949e-05 0.102446)
(-0.000139248 7.94991e-05 0.102798)
(-0.000139286 -7.94825e-05 0.102798)
(0.000189114 -0.00018923 0.102433)
(7.30295e-05 -7.31039e-05 0.102812)
(-8.30996e-05 -0.000144545 0.102446)
(7.95129e-05 -0.000139252 0.102798)
(-7.94835e-05 -0.000139254 0.102798)
(-7.3132e-05 -7.31652e-05 0.102812)
(0.000182662 0.000182568 0.102872)
(6.58926e-05 6.58463e-05 0.103229)
(7.89082e-05 0.000138362 0.102912)
(-7.88761e-05 0.00013837 0.102912)
(7.58182e-05 0.000133437 0.103245)
(-7.57725e-05 0.000133414 0.103245)
(-0.000182643 0.000182562 0.102872)
(-6.58768e-05 6.5837e-05 0.103229)
(0.000138312 7.89163e-05 0.102912)
(0.000138328 -7.8865e-05 0.102912)
(0.00013337 7.58001e-05 0.103245)
(0.000133393 -7.57659e-05 0.103245)
(-0.000138336 -7.89032e-05 0.102912)
(-0.000133363 7.57836e-05 0.103245)
(-0.000133423 -7.57901e-05 0.103245)
(0.000182554 -0.000182681 0.102872)
(6.58326e-05 -6.59073e-05 0.103229)
(-7.89044e-05 -0.000138304 0.102912)
(7.57998e-05 -0.000133377 0.103245)
(-7.57797e-05 -0.000133374 0.103245)
(-6.59682e-05 -6.59933e-05 0.103229)
(0.000175075 0.000175 0.103281)
(5.20546e-05 5.20786e-05 0.103608)
(7.38726e-05 0.000130332 0.103353)
(-7.38367e-05 0.000130314 0.103353)
(6.72995e-05 0.000119518 0.10366)
(-6.72767e-05 0.000119466 0.10366)
(-0.000175061 0.000174965 0.103281)
(-5.20644e-05 5.20993e-05 0.103608)
(0.000130272 7.39307e-05 0.103354)
(0.000130288 -7.38281e-05 0.103353)
(0.000119403 6.72445e-05 0.10366)
(0.000119445 -6.72634e-05 0.10366)
(-0.000130324 -7.39305e-05 0.103353)
(-0.000119427 6.72223e-05 0.10366)
(-0.000119459 -6.72001e-05 0.10366)
(0.000174975 -0.000175104 0.103281)
(5.20501e-05 -5.19971e-05 0.103608)
(-7.39442e-05 -0.000130269 0.103354)
(6.721e-05 -0.000119402 0.10366)
(-6.71783e-05 -0.00011939 0.10366)
(-5.20072e-05 -5.19827e-05 0.103608)
(0.000156427 0.000156386 0.103648)
(8.60974e-06 8.63464e-06 0.103874)
(6.1839e-05 0.00011095 0.103754)
(-6.18184e-05 0.000110902 0.103754)
(4.05192e-05 7.18551e-05 0.103971)
(-4.05396e-05 7.18768e-05 0.103971)
(-0.000156458 0.000156392 0.103648)
(-8.56093e-06 8.59044e-06 0.103874)
(0.00011083 6.18106e-05 0.103754)
(0.000110884 -6.18097e-05 0.103754)
(7.1844e-05 4.04789e-05 0.103971)
(7.18869e-05 -4.05235e-05 0.103971)
(-0.000110908 -6.17535e-05 0.103754)
(-7.18236e-05 4.04592e-05 0.103971)
(-7.18763e-05 -4.05052e-05 0.103971)
(0.00015636 -0.000156425 0.103648)
(8.62497e-06 -8.57859e-06 0.103874)
(-6.17408e-05 -0.000110819 0.103754)
(4.04673e-05 -7.18277e-05 0.103971)
(-4.04415e-05 -7.17871e-05 0.103971)
(-8.57506e-06 -8.51376e-06 0.103874)
(0.000107229 0.000107205 0.103883)
(-2.52672e-05 -2.52515e-05 0.103942)
(3.53548e-05 6.10021e-05 0.104014)
(-3.53702e-05 6.10186e-05 0.104014)
(2.38552e-05 3.70605e-05 0.104088)
(-2.38486e-05 3.70794e-05 0.104088)
(-0.0001072 0.000107154 0.103883)
(2.52888e-05 -2.52605e-05 0.103942)
(6.09978e-05 3.52999e-05 0.104014)
(6.10316e-05 -3.53653e-05 0.104014)
(3.70723e-05 2.37898e-05 0.104088)
(3.70906e-05 -2.38445e-05 0.104088)
(-6.10173e-05 -3.53533e-05 0.104014)
(-3.70603e-05 2.37855e-05 0.104088)
(-3.707e-05 -2.3829e-05 0.104088)
(0.000107197 -0.000107239 0.103883)
(-2.52267e-05 2.53074e-05 0.103942)
(-3.52883e-05 -6.09566e-05 0.104014)
(2.37906e-05 -3.70576e-05 0.104088)
(-2.37892e-05 -3.70576e-05 0.104088)
(2.52737e-05 2.52736e-05 0.103942)
(7.46572e-05 7.46125e-05 0.103933)
(-4.48216e-05 -4.48008e-05 0.10394)
(1.99021e-05 2.99952e-05 0.1041)
(-1.98874e-05 3.00146e-05 0.1041)
(9.09386e-06 1.26351e-05 0.104116)
(-9.07198e-06 1.26404e-05 0.104116)
(-7.46342e-05 7.45924e-05 0.103933)
(4.48438e-05 -4.48145e-05 0.10394)
(3.00036e-05 1.98423e-05 0.1041)
(3.00235e-05 -1.98873e-05 0.1041)
(1.26225e-05 9.0463e-06 0.104116)
(1.26335e-05 -9.07183e-06 0.104116)
(-2.9992e-05 -1.98768e-05 0.1041)
(-1.25945e-05 9.03139e-06 0.104116)
(-1.26344e-05 -9.08414e-06 0.104116)
(7.46277e-05 -7.46527e-05 0.103933)
(-4.48036e-05 4.48462e-05 0.10394)
(-1.98352e-05 -2.99814e-05 0.1041)
(9.03444e-06 -1.25992e-05 0.104116)
(-9.04379e-06 -1.26081e-05 0.104116)
(4.47992e-05 4.48101e-05 0.10394)
(5.61631e-05 5.61324e-05 0.103927)
(-5.16724e-05 -5.16464e-05 0.103933)
(6.54948e-06 8.7883e-06 0.104118)
(-6.5276e-06 8.80362e-06 0.104118)
(2.39192e-06 2.64659e-06 0.104118)
(-2.39721e-06 2.66004e-06 0.104118)
(-5.61478e-05 5.61098e-05 0.103927)
(5.16729e-05 -5.16445e-05 0.103933)
(8.7795e-06 6.50719e-06 0.104118)
(8.78276e-06 -6.5271e-06 0.104118)
(2.62715e-06 2.36036e-06 0.104118)
(2.65903e-06 -2.39568e-06 0.104118)
(-8.79685e-06 -6.54288e-06 0.104118)
(-2.62964e-06 2.36095e-06 0.104118)
(-2.65585e-06 -2.3939e-06 0.104118)
(5.61183e-05 -5.6173e-05 0.103927)
(-5.16419e-05 5.16719e-05 0.103933)
(-6.50367e-06 -8.77096e-06 0.104118)
(2.35858e-06 -2.63322e-06 0.104118)
(-2.35896e-06 -2.62777e-06 0.104118)
(5.16337e-05 5.16526e-05 0.103933)
(5.04499e-05 5.04261e-05 0.103921)
(-5.25275e-05 -5.24988e-05 0.103931)
(1.84214e-06 1.82622e-06 0.104118)
(-1.84625e-06 1.8446e-06 0.104118)
(1.24183e-06 8.6753e-07 0.104118)
(-1.24103e-06 8.99172e-07 0.104118)
(-5.04669e-05 5.04202e-05 0.103921)
(5.25203e-05 -5.24997e-05 0.103931)
(1.80457e-06 1.81452e-06 0.104118)
(1.83682e-06 -1.84826e-06 0.104118)
(8.39993e-07 1.21192e-06 0.104118)
(8.7609e-07 -1.24192e-06 0.104118)
(-1.83348e-06 -1.84529e-06 0.104118)
(-8.60184e-07 1.21324e-06 0.104118)
(-8.71266e-07 -1.23641e-06 0.104118)
(5.04333e-05 -5.04866e-05 0.103921)
(-5.24934e-05 5.253e-05 0.103931)
(-1.81212e-06 -1.80417e-06 0.104118)
(1.21081e-06 -8.40909e-07 0.104118)
(-1.20131e-06 -8.38422e-07 0.104118)
(5.24933e-05 5.25154e-05 0.103931)
(4.98048e-05 4.97821e-05 0.10392)
(-5.25815e-05 -5.25552e-05 0.103931)
(1.19169e-06 8.07889e-07 0.104118)
(-1.18768e-06 8.38281e-07 0.104118)
(1.14647e-06 7.4725e-07 0.104117)
(-1.14522e-06 7.78706e-07 0.104117)
(-4.9824e-05 4.97704e-05 0.10392)
(5.25782e-05 -5.25563e-05 0.103931)
(7.81279e-07 1.16435e-06 0.104118)
(8.12316e-07 -1.19099e-06 0.104117)
(7.23339e-07 1.11612e-06 0.104118)
(7.56232e-07 -1.14187e-06 0.104117)
(-8.07033e-07 -1.18223e-06 0.104117)
(-7.33868e-07 1.11525e-06 0.104118)
(-7.57353e-07 -1.1388e-06 0.104117)
(4.97844e-05 -4.98376e-05 0.10392)
(-5.25538e-05 5.25878e-05 0.103931)
(-1.14719e-06 -7.75129e-07 0.104118)
(1.11105e-06 -7.21138e-07 0.104117)
(-1.10574e-06 -7.26418e-07 0.104117)
(5.25462e-05 5.25679e-05 0.103931)
(4.97513e-05 4.97318e-05 0.10392)
(-5.25664e-05 -5.25412e-05 0.103931)
(1.14615e-06 7.52046e-07 0.104117)
(-1.14399e-06 7.74757e-07 0.104117)
(1.14346e-06 7.48227e-07 0.104117)
(-1.14157e-06 7.60611e-07 0.104117)
(-4.97673e-05 4.97182e-05 0.10392)
(5.25787e-05 -5.25503e-05 0.103931)
(7.26125e-07 1.12012e-06 0.104118)
(7.53247e-07 -1.13977e-06 0.104117)
(7.22314e-07 1.11719e-06 0.104117)
(7.54021e-07 -1.13995e-06 0.104117)
(-7.53252e-07 -1.13524e-06 0.104117)
(-7.19216e-07 1.10941e-06 0.104118)
(-7.55873e-07 -1.13599e-06 0.104117)
(4.97267e-05 -4.97795e-05 0.10392)
(-5.25433e-05 5.25766e-05 0.103931)
(-1.10339e-06 -7.22574e-07 0.104117)
(1.10789e-06 -7.21922e-07 0.104117)
(-1.10477e-06 -7.24256e-07 0.104117)
(5.25392e-05 5.25612e-05 0.103931)
(4.97485e-05 4.97337e-05 0.10392)
(-5.25674e-05 -5.25399e-05 0.103931)
(1.14223e-06 7.55566e-07 0.104117)
(-1.14525e-06 7.63567e-07 0.104117)
(1.13489e-06 7.52002e-07 0.104117)
(-1.14851e-06 7.72506e-07 0.104117)
(-4.97553e-05 4.9714e-05 0.10392)
(5.25702e-05 -5.25278e-05 0.103931)
(7.28038e-07 1.11868e-06 0.104117)
(7.54823e-07 -1.14101e-06 0.104117)
(7.23083e-07 1.11242e-06 0.104117)
(7.55016e-07 -1.13462e-06 0.104117)
(-7.57539e-07 -1.13561e-06 0.104117)
(-7.20006e-07 1.12027e-06 0.104118)
(-7.51282e-07 -1.12532e-06 0.104117)
(4.97241e-05 -4.97777e-05 0.10392)
(-5.25413e-05 5.25774e-05 0.103931)
(-1.10493e-06 -7.25688e-07 0.104117)
(1.10511e-06 -7.20505e-07 0.104117)
(-1.09532e-06 -7.17408e-07 0.104117)
(5.25478e-05 5.25706e-05 0.103931)
(4.97383e-05 4.97246e-05 0.10392)
(-5.25741e-05 -5.2548e-05 0.103931)
(1.13223e-06 7.5611e-07 0.104117)
(-1.14417e-06 7.64678e-07 0.104117)
(1.12673e-06 7.43251e-07 0.104117)
(-1.13194e-06 7.55111e-07 0.104117)
(-4.97473e-05 4.97206e-05 0.10392)
(5.25789e-05 -5.25553e-05 0.103931)
(7.26326e-07 1.11229e-06 0.104117)
(7.53166e-07 -1.13267e-06 0.104117)
(7.16284e-07 1.10226e-06 0.104117)
(7.47773e-07 -1.1226e-06 0.104117)
(-7.48873e-07 -1.12291e-06 0.104117)
(-7.13253e-07 1.10379e-06 0.104117)
(-7.43772e-07 -1.12078e-06 0.104117)
(4.97161e-05 -4.9767e-05 0.10392)
(-5.2551e-05 5.25878e-05 0.103931)
(-1.09305e-06 -7.15245e-07 0.104117)
(1.09379e-06 -7.10396e-07 0.104117)
(-1.08963e-06 -7.08695e-07 0.104117)
(5.25551e-05 5.25762e-05 0.103931)
(4.97337e-05 4.97179e-05 0.103919)
(-5.25748e-05 -5.25474e-05 0.103931)
(1.12764e-06 7.52116e-07 0.104117)
(-1.13319e-06 7.55248e-07 0.104117)
(1.12567e-06 7.42735e-07 0.104117)
(-1.12997e-06 7.50337e-07 0.104117)
(-4.97393e-05 4.96996e-05 0.10392)
(5.2583e-05 -5.25566e-05 0.103931)
(7.222e-07 1.10545e-06 0.104117)
(7.46833e-07 -1.12316e-06 0.104117)
(7.16985e-07 1.10129e-06 0.104117)
(7.51338e-07 -1.1262e-06 0.104117)
(-7.43761e-07 -1.12072e-06 0.104117)
(-7.13959e-07 1.10277e-06 0.104117)
(-7.46063e-07 -1.12441e-06 0.104117)
(4.97072e-05 -4.97574e-05 0.10392)
(-5.25458e-05 5.25831e-05 0.103931)
(-1.08971e-06 -7.08746e-07 0.104117)
(1.09748e-06 -7.15515e-07 0.104117)
(-1.09271e-06 -7.11741e-07 0.104117)
(5.25508e-05 5.25722e-05 0.103931)
(4.97347e-05 4.97174e-05 0.103919)
(-5.25694e-05 -5.25291e-05 0.103931)
(1.12698e-06 7.52569e-07 0.104117)
(-1.13421e-06 7.56194e-07 0.104117)
(1.13285e-06 7.61578e-07 0.104117)
(-1.14095e-06 7.69335e-07 0.104117)
(-4.97376e-05 4.97019e-05 0.10392)
(5.2574e-05 -5.25311e-05 0.103931)
(7.25103e-07 1.10668e-06 0.104117)
(7.53014e-07 -1.12856e-06 0.104117)
(7.24117e-07 1.1142e-06 0.104117)
(7.58706e-07 -1.12888e-06 0.104117)
(-7.49217e-07 -1.12627e-06 0.104117)
(-7.21142e-07 1.11907e-06 0.104117)
(-7.52446e-07 -1.12621e-06 0.104117)
(4.97148e-05 -4.97646e-05 0.10392)
(-5.25391e-05 5.25788e-05 0.103931)
(-1.09492e-06 -7.15692e-07 0.104117)
(1.10286e-06 -7.20474e-07 0.104117)
(-1.09574e-06 -7.1722e-07 0.104117)
(5.2546e-05 5.25691e-05 0.103931)
(4.97421e-05 4.9739e-05 0.103919)
(-5.25736e-05 -5.25272e-05 0.103931)
(1.13502e-06 7.71278e-07 0.104117)
(-1.14344e-06 7.75853e-07 0.104117)
(1.13563e-06 7.55648e-07 0.104117)
(-1.12817e-06 7.63208e-07 0.104117)
(-4.97479e-05 4.97257e-05 0.10392)
(5.25781e-05 -5.25462e-05 0.103931)
(7.27734e-07 1.11921e-06 0.104117)
(7.58777e-07 -1.12968e-06 0.104117)
(7.23396e-07 1.11489e-06 0.104117)
(7.53144e-07 -1.12368e-06 0.104117)
(-7.53598e-07 -1.12461e-06 0.104117)
(-7.19526e-07 1.10782e-06 0.104118)
(-7.57462e-07 -1.12431e-06 0.104117)
(4.97205e-05 -4.97681e-05 0.10392)
(-5.25454e-05 5.25845e-05 0.103931)
(-1.09435e-06 -7.18238e-07 0.104117)
(1.09854e-06 -7.13009e-07 0.104117)
(-1.0921e-06 -7.2372e-07 0.104117)
(5.25456e-05 5.25711e-05 0.103931)
(4.97431e-05 4.9732e-05 0.10392)
(-5.25755e-05 -5.25384e-05 0.103931)
(1.13501e-06 7.52546e-07 0.104117)
(-1.11857e-06 7.54849e-07 0.104117)
(1.13757e-06 7.68391e-07 0.104117)
(-1.1315e-06 7.64219e-07 0.104117)
(-4.97301e-05 4.96935e-05 0.10392)
(5.25682e-05 -5.25486e-05 0.103931)
(7.26573e-07 1.11067e-06 0.104117)
(7.52007e-07 -1.12496e-06 0.104117)
(7.34565e-07 1.10478e-06 0.104117)
(7.5407e-07 -1.12765e-06 0.104117)
(-7.56716e-07 -1.12422e-06 0.104117)
(-7.2376e-07 1.1038e-06 0.104118)
(-7.502e-07 -1.12901e-06 0.104117)
(4.97129e-05 -4.97613e-05 0.10392)
(-5.25432e-05 5.25803e-05 0.103931)
(-1.0913e-06 -7.24866e-07 0.104117)
(1.10116e-06 -7.16719e-07 0.104117)
(-1.09493e-06 -7.20773e-07 0.104117)
(5.25456e-05 5.25675e-05 0.103931)
(4.97456e-05 4.97198e-05 0.103919)
(-5.25786e-05 -5.25368e-05 0.103931)
(1.14379e-06 7.67699e-07 0.104117)
(-1.13507e-06 7.59942e-07 0.104117)
(1.12896e-06 7.5091e-07 0.104117)
(-1.13345e-06 7.58434e-07 0.104117)
(-4.97456e-05 4.9706e-05 0.10392)
(5.25754e-05 -5.255e-05 0.103931)
(7.40557e-07 1.10807e-06 0.104117)
(7.54838e-07 -1.12986e-06 0.104117)
(7.23131e-07 1.10308e-06 0.104117)
(7.56487e-07 -1.13069e-06 0.104117)
(-7.51028e-07 -1.12959e-06 0.104117)
(-7.22762e-07 1.10504e-06 0.104118)
(-7.49999e-07 -1.12602e-06 0.104117)
(4.97156e-05 -4.97656e-05 0.10392)
(-5.25405e-05 5.25773e-05 0.103931)
(-1.09611e-06 -7.21348e-07 0.104117)
(1.1029e-06 -7.20691e-07 0.104117)
(-1.09337e-06 -7.19033e-07 0.104117)
(5.2548e-05 5.25698e-05 0.103931)
(4.97451e-05 4.97165e-05 0.103919)
(-5.25773e-05 -5.25408e-05 0.103931)
(1.13306e-06 7.49728e-07 0.104117)
(-1.13525e-06 7.56722e-07 0.104117)
(1.1294e-06 7.50474e-07 0.104117)
(-1.13686e-06 7.57321e-07 0.104117)
(-4.97384e-05 4.97037e-05 0.10392)
(5.25742e-05 -5.25485e-05 0.103931)
(7.28764e-07 1.10526e-06 0.104117)
(7.55027e-07 -1.13072e-06 0.104117)
(7.20963e-07 1.10139e-06 0.104117)
(7.5399e-07 -1.12778e-06 0.104117)
(-7.49771e-07 -1.12633e-06 0.104117)
(-7.19158e-07 1.10462e-06 0.104118)
(-7.47534e-07 -1.12607e-06 0.104117)
(4.97172e-05 -4.97674e-05 0.10392)
(-5.25436e-05 5.2581e-05 0.103931)
(-1.09411e-06 -7.18555e-07 0.104117)
(1.09959e-06 -7.16063e-07 0.104117)
(-1.0931e-06 -7.15202e-07 0.104117)
(5.25498e-05 5.25706e-05 0.103931)
(4.97446e-05 4.97125e-05 0.103919)
(-5.25755e-05 -5.25406e-05 0.103931)
(1.1314e-06 7.46778e-07 0.104117)
(-1.13758e-06 7.5635e-07 0.104117)
(1.12914e-06 7.49991e-07 0.104117)
(-1.13672e-06 7.56045e-07 0.104117)
(-4.97398e-05 4.97048e-05 0.10392)
(5.25743e-05 -5.25498e-05 0.103931)
(7.2547e-07 1.10121e-06 0.104117)
(7.53985e-07 -1.12947e-06 0.104117)
(7.21031e-07 1.10203e-06 0.104117)
(7.52065e-07 -1.12752e-06 0.104117)
(-7.46539e-07 -1.12506e-06 0.104117)
(-7.18078e-07 1.10253e-06 0.104118)
(-7.48286e-07 -1.12677e-06 0.104117)
(4.97141e-05 -4.97641e-05 0.10392)
(-5.25456e-05 5.25812e-05 0.103931)
(-1.09227e-06 -7.1362e-07 0.104117)
(1.09784e-06 -7.16955e-07 0.104117)
(-1.09359e-06 -7.13609e-07 0.104117)
(5.25493e-05 5.257e-05 0.103931)
(4.97474e-05 4.97137e-05 0.10392)
(-5.25771e-05 -5.25413e-05 0.103931)
(1.13347e-06 7.48116e-07 0.104117)
(-1.13702e-06 7.54804e-07 0.104117)
(1.12789e-06 7.48443e-07 0.104117)
(-1.13573e-06 7.56347e-07 0.104117)
(-4.97399e-05 4.97036e-05 0.10392)
(5.2576e-05 -5.25499e-05 0.103931)
(7.25233e-07 1.10136e-06 0.104117)
(7.51222e-07 -1.12876e-06 0.104117)
(7.19404e-07 1.10144e-06 0.104117)
(7.52688e-07 -1.12771e-06 0.104117)
(-7.48197e-07 -1.12656e-06 0.104117)
(-7.16506e-07 1.10125e-06 0.104118)
(-7.46304e-07 -1.12616e-06 0.104117)
(4.97125e-05 -4.97642e-05 0.10392)
(-5.25441e-05 5.25803e-05 0.103931)
(-1.09358e-06 -7.15512e-07 0.104117)
(1.09835e-06 -7.18152e-07 0.104117)
(-1.09268e-06 -7.15451e-07 0.104117)
(5.25496e-05 5.25697e-05 0.103931)
(4.97453e-05 4.97129e-05 0.10392)
(-5.25736e-05 -5.25377e-05 0.103931)
(1.1354e-06 7.4789e-07 0.104117)
(-1.13602e-06 7.55491e-07 0.104117)
(1.12873e-06 7.51074e-07 0.104117)
(-1.13839e-06 7.59499e-07 0.104117)
(-4.97375e-05 4.97032e-05 0.10392)
(5.25731e-05 -5.25459e-05 0.103931)
(7.22545e-07 1.0986e-06 0.104117)
(7.51838e-07 -1.12844e-06 0.104117)
(7.2211e-07 1.10563e-06 0.104117)
(7.53541e-07 -1.12792e-06 0.104117)
(-7.47176e-07 -1.12686e-06 0.104117)
(-7.17957e-07 1.10385e-06 0.104118)
(-7.48486e-07 -1.12788e-06 0.104117)
(4.97137e-05 -4.97643e-05 0.10392)
(-5.25426e-05 5.25797e-05 0.103931)
(-1.09387e-06 -7.17199e-07 0.104117)
(1.09932e-06 -7.18867e-07 0.104117)
(-1.09502e-06 -7.18533e-07 0.104117)
(5.2547e-05 5.25679e-05 0.103931)
(4.97477e-05 4.97159e-05 0.10392)
(-5.25759e-05 -5.25421e-05 0.103931)
(1.1392e-06 7.51372e-07 0.104117)
(-1.1394e-06 7.58684e-07 0.104117)
(1.12178e-06 7.47451e-07 0.104117)
(-1.1371e-06 7.57118e-07 0.104117)
(-4.97413e-05 4.97074e-05 0.10392)
(5.25738e-05 -5.25485e-05 0.103931)
(7.23671e-07 1.09735e-06 0.104117)
(7.53644e-07 -1.12989e-06 0.104117)
(7.22051e-07 1.10586e-06 0.104117)
(7.52986e-07 -1.12854e-06 0.104117)
(-7.48415e-07 -1.12776e-06 0.104117)
(-7.16764e-07 1.10141e-06 0.104118)
(-7.45945e-07 -1.12635e-06 0.104117)
(4.97145e-05 -4.97649e-05 0.10392)
(-5.25431e-05 5.25791e-05 0.103931)
(-1.09529e-06 -7.19249e-07 0.104117)
(1.09891e-06 -7.18871e-07 0.104117)
(-1.09323e-06 -7.17511e-07 0.104117)
(5.25482e-05 5.25688e-05 0.103931)
(4.97433e-05 4.97116e-05 0.10392)
(-5.25703e-05 -5.25375e-05 0.103931)
(1.14205e-06 7.51576e-07 0.104117)
(-1.13842e-06 7.57304e-07 0.104117)
(1.11846e-06 7.48204e-07 0.104117)
(-1.13912e-06 7.59999e-07 0.104117)
(-4.97394e-05 4.97039e-05 0.10392)
(5.25704e-05 -5.25439e-05 0.103931)
(7.20391e-07 1.09116e-06 0.104117)
(7.52242e-07 -1.13013e-06 0.104117)
(7.27508e-07 1.11476e-06 0.104117)
(7.54126e-07 -1.1288e-06 0.104117)
(-7.45952e-07 -1.12656e-06 0.104117)
(-7.17955e-07 1.10326e-06 0.104118)
(-7.49534e-07 -1.13064e-06 0.104117)
(4.97126e-05 -4.97642e-05 0.10392)
(-5.25401e-05 5.25763e-05 0.103931)
(-1.09377e-06 -7.18177e-07 0.104117)
(1.09974e-06 -7.19837e-07 0.104117)
(-1.09767e-06 -7.22018e-07 0.104117)
(5.25417e-05 5.25622e-05 0.103931)
(4.97437e-05 4.97151e-05 0.10392)
(-5.25587e-05 -5.25357e-05 0.103931)
(1.15284e-06 7.56954e-07 0.104117)
(-1.14046e-06 7.59326e-07 0.104117)
(1.11007e-06 7.4395e-07 0.104117)
(-1.13894e-06 7.61279e-07 0.104117)
(-4.97401e-05 4.9706e-05 0.10392)
(5.25659e-05 -5.25389e-05 0.103931)
(7.20146e-07 1.0865e-06 0.104117)
(7.53458e-07 -1.12974e-06 0.104117)
(7.36186e-07 1.12574e-06 0.104117)
(7.56151e-07 -1.12766e-06 0.104117)
(-7.49131e-07 -1.12916e-06 0.104117)
(-7.18989e-07 1.10416e-06 0.104118)
(-7.47985e-07 -1.12741e-06 0.104117)
(4.97118e-05 -4.97625e-05 0.10392)
(-5.25332e-05 5.25712e-05 0.103931)
(-1.0967e-06 -7.21754e-07 0.104117)
(1.10085e-06 -7.19689e-07 0.104117)
(-1.09432e-06 -7.20007e-07 0.104117)
(5.25393e-05 5.25603e-05 0.103931)
(4.97378e-05 4.97132e-05 0.10392)
(-5.25412e-05 -5.25293e-05 0.103931)
(1.16842e-06 7.62505e-07 0.104117)
(-1.13942e-06 7.58502e-07 0.104117)
(1.08785e-06 7.38181e-07 0.104117)
(-1.13747e-06 7.62258e-07 0.104117)
(-4.97349e-05 4.96999e-05 0.10392)
(5.25509e-05 -5.25243e-05 0.103931)
(7.16933e-07 1.07444e-06 0.104117)
(7.54607e-07 -1.12894e-06 0.104117)
(7.40519e-07 1.14163e-06 0.104118)
(7.51245e-07 -1.12789e-06 0.104117)
(-7.48474e-07 -1.12812e-06 0.104117)
(-7.19983e-07 1.10121e-06 0.104118)
(-7.4632e-07 -1.12868e-06 0.104117)
(4.97054e-05 -4.97547e-05 0.10392)
(-5.2518e-05 5.25528e-05 0.103931)
(-1.09509e-06 -7.21239e-07 0.104117)
(1.09715e-06 -7.17118e-07 0.104117)
(-1.09394e-06 -7.20488e-07 0.104117)
(5.25229e-05 5.25437e-05 0.103931)
(4.96963e-05 4.97053e-05 0.10392)
(1.18265e-06 7.75075e-07 0.104117)
(-1.13609e-06 7.57769e-07 0.104117)
(-4.97149e-05 4.96778e-05 0.10392)
(7.03934e-07 1.05297e-06 0.104117)
(7.51006e-07 -1.12818e-06 0.104117)
(-7.48903e-07 -1.128e-06 0.104117)
(4.96757e-05 -4.97282e-05 0.10392)
(-1.09434e-06 -7.2309e-07 0.104117)
(-2.98041e-07 -3.01109e-07 0.0999988)
(1.64916e-05 1.64875e-05 0.100003)
(-4.71523e-07 1.37331e-05 0.1)
(1.37414e-05 -4.74325e-07 0.1)
(-4.5898e-05 5.48223e-06 0.100008)
(-1.49514e-05 1.49409e-05 0.1)
(-0.000127004 6.05332e-05 0.100059)
(-1.28385e-05 -8.3547e-07 0.0999958)
(5.47815e-06 -4.58829e-05 0.100008)
(1.49424e-05 -1.49518e-05 0.1)
(-8.32972e-07 -1.28377e-05 0.0999958)
(6.05417e-05 -0.000126934 0.100059)
(-1.7909e-05 -1.79107e-05 0.100003)
(-0.000135092 -8.1593e-05 0.100055)
(-8.16097e-05 -0.000135074 0.100055)
(-2.41857e-05 0.000137877 0.100717)
(0.000204998 0.000298236 0.0993474)
(2.33359e-05 0.000303181 0.100518)
(-8.84959e-05 0.000211133 0.0991549)
(-0.000331772 0.0008925 0.0976626)
(-8.4321e-05 0.000336746 0.0957559)
(0.000137703 -2.42881e-05 0.100717)
(0.000298829 0.000203749 0.0993481)
(0.000304009 2.32474e-05 0.100519)
(0.000211335 -8.82149e-05 0.0991553)
(-0.000105968 0.000105917 0.100294)
(0.000105957 -0.000105971 0.100294)
(-0.000105951 -0.000105971 0.100294)
(9.15745e-05 9.14883e-05 0.100744)
(-9.15377e-05 9.15025e-05 0.100744)
(9.15396e-05 -9.1571e-05 0.100744)
(-9.15205e-05 -9.15851e-05 0.100744)
(-0.00027883 7.19434e-07 0.100752)
(-0.000401638 0.000206367 0.100516)
(-0.000177852 3.70456e-05 0.10033)
(-0.000151394 9.49527e-05 0.100554)
(-0.000345666 1.97316e-05 0.10047)
(-0.000180516 0.000173339 0.100752)
(-0.000150041 3.39411e-05 0.100494)
(0.000891467 -0.000330071 0.0976611)
(0.000336926 -8.40832e-05 0.0957569)
(6.56738e-07 -0.000278724 0.100752)
(3.70902e-05 -0.000177855 0.10033)
(0.000206463 -0.000401574 0.100516)
(9.48961e-05 -0.000151391 0.100554)
(1.97926e-05 -0.000345566 0.10047)
(3.39934e-05 -0.000149999 0.100495)
(0.000173383 -0.000180485 0.100751)
(-0.000390195 -0.000137554 0.10037)
(-0.000137658 -0.000390405 0.10037)
(-0.000111435 -0.000111545 0.100654)
(2.39355e-05 -9.71863e-05 0.100581)
(-9.73981e-05 2.40212e-05 0.100581)
(-1.26264e-05 0.00018956 0.100858)
(-4.77034e-05 0.000251221 0.0983116)
(-1.40036e-05 0.000191916 0.100776)
(-4.19469e-05 0.000246947 0.0979296)
(-0.000142141 0.000340231 0.0926161)
(-0.000125078 0.000292792 0.0909812)
(0.000189493 -1.27522e-05 0.100857)
(0.000251488 -4.75894e-05 0.098312)
(0.000191932 -1.41016e-05 0.100777)