/*--------------------------------*- C++ -*----------------------------------*\
| =========                 |                                                 |
| \\      /  F ield         | OpenFOAM: The Open Source CFD Toolbox           |
|  \\    /   O peration     | Version:  v1912                                 |
|   \\  /    A nd           | Website:  www.openfoam.com                      |
|    \\/     M anipulation  |                                                 |
\*---------------------------------------------------------------------------*/
FoamFile
{
    version     2.0;
    format      ascii;
    class       volScalarField;
    location    "60";
    object      epsilon;
}
// * * * * * * * * * * * * * * * * * * * * * * * * * * * * * * * * * * * * * //

dimensions      [0 2 -3 0 0 0 0];


internalField   nonuniform List<scalar> 
57062
(
1.72546e-07
2.10504e-07
2.10513e-07
2.56004e-07
1.72553e-07
2.10521e-07
2.10525e-07
2.56035e-07
1.72554e-07
2.10537e-07
2.10542e-07
2.56063e-07
1.72555e-07
2.10553e-07
2.10559e-07
2.56094e-07
1.72557e-07
2.1057e-07
2.10576e-07
2.5613e-07
1.72567e-07
2.10587e-07
2.10593e-07
2.56167e-07
1.72562e-07
2.10605e-07
2.10608e-07
2.562e-07
1.72556e-07
2.10616e-07
2.10619e-07
2.56231e-07
1.72545e-07
2.10599e-07
2.10606e-07
2.56258e-07
1.72524e-07
2.10579e-07
2.10591e-07
2.56254e-07
1.72503e-07
2.10547e-07
2.10567e-07
2.56198e-07
1.72468e-07
2.10464e-07
2.10509e-07
2.56081e-07
1.72364e-07
2.10364e-07
2.10388e-07
2.55944e-07
1.72351e-07
2.10357e-07
2.10373e-07
2.5592e-07
1.72355e-07
2.1036e-07
2.10375e-07
2.55929e-07
1.72355e-07
2.10359e-07
2.10375e-07
2.55939e-07
1.72355e-07
2.10359e-07
2.10375e-07
2.55946e-07
1.72356e-07
2.10359e-07
2.10375e-07
2.55943e-07
1.72356e-07
2.10359e-07
2.10375e-07
2.55943e-07
1.72356e-07
2.10359e-07
2.10375e-07
2.55942e-07
1.72356e-07
2.10359e-07
2.10375e-07
2.55942e-07
1.72356e-07
2.10357e-07
2.10374e-07
2.55941e-07
1.72356e-07
2.10355e-07
2.10371e-07
2.55938e-07
1.72356e-07
2.10352e-07
2.10368e-07
2.55938e-07
1.72357e-07
2.10346e-07
2.10362e-07
2.55934e-07
1.72358e-07
2.10337e-07
2.10352e-07
2.55927e-07
1.72359e-07
2.10321e-07
2.10336e-07
2.55913e-07
1.72359e-07
2.10292e-07
2.10307e-07
2.55889e-07
1.72346e-07
2.10283e-07
2.10297e-07
2.55817e-07
1.71185e-07
2.05077e-07
2.0508e-07
2.47986e-07
2.55608e-07
2.10544e-07
2.1055e-07
2.55586e-07
2.10517e-07
2.10535e-07
2.10502e-07
2.10538e-07
2.55595e-07
2.1051e-07
2.10516e-07
2.55605e-07
2.56014e-07
2.5564e-07
2.10544e-07
2.10557e-07
2.10549e-07
2.10562e-07
2.55989e-07
2.55613e-07
2.10518e-07
2.10537e-07
2.10524e-07
2.10546e-07
2.10545e-07
2.10518e-07
2.10551e-07
2.56e-07
2.55628e-07
2.10522e-07
2.10523e-07
2.10528e-07
2.55636e-07
2.56042e-07
2.55664e-07
2.10561e-07
2.10572e-07
2.10562e-07
2.10578e-07
2.56016e-07
2.55643e-07
2.10536e-07
2.10558e-07
2.1054e-07
2.10566e-07
2.10561e-07
2.10534e-07
2.10567e-07
2.5603e-07
2.55656e-07
2.10538e-07
2.10539e-07
2.10544e-07
2.55664e-07
2.56066e-07
2.55691e-07
2.10574e-07
2.10589e-07
2.10575e-07
2.10595e-07
2.56047e-07
2.55677e-07
2.10552e-07
2.10578e-07
2.10553e-07
2.10584e-07
2.10579e-07
2.10551e-07
2.10583e-07
2.56058e-07
2.55689e-07
2.10556e-07
2.10556e-07
2.10561e-07
2.55694e-07
2.56093e-07
2.5572e-07
2.10587e-07
2.10606e-07
2.10589e-07
2.10611e-07
2.56081e-07
2.55714e-07
2.10564e-07
2.10596e-07
2.10566e-07
2.10601e-07
2.10595e-07
2.10567e-07
2.106e-07
2.56092e-07
2.55724e-07
2.10572e-07
2.10573e-07
2.10577e-07
2.55729e-07
2.56123e-07
2.55747e-07
2.10601e-07
2.10623e-07
2.10603e-07
2.10629e-07
2.56119e-07
2.55753e-07
2.10578e-07
2.10612e-07
2.10581e-07
2.10617e-07
2.1061e-07
2.10584e-07
2.10616e-07
2.56126e-07
2.55754e-07
2.10589e-07
2.1059e-07
2.10595e-07
2.55767e-07
2.56149e-07
2.55775e-07
2.10615e-07
2.10641e-07
2.10617e-07
2.10648e-07
2.56158e-07
2.55788e-07
2.10593e-07
2.10628e-07
2.10595e-07
2.10632e-07
2.10628e-07
2.10602e-07
2.10634e-07
2.56157e-07
2.55783e-07
2.10607e-07
2.10606e-07
2.10613e-07
2.558e-07
2.56178e-07
2.55802e-07
2.10629e-07
2.1066e-07
2.1063e-07
2.10666e-07
2.56192e-07
2.55822e-07
2.10607e-07
2.10644e-07
2.10608e-07
2.10646e-07
2.10646e-07
2.10617e-07
2.10651e-07
2.56186e-07
2.55813e-07
2.10624e-07
2.10619e-07
2.1063e-07
2.55831e-07
2.56204e-07
2.5582e-07
2.10641e-07
2.10677e-07
2.1064e-07
2.10675e-07
2.56226e-07
2.55839e-07
2.10619e-07
2.10657e-07
2.10616e-07
2.10654e-07
2.10662e-07
2.10605e-07
2.10661e-07
2.56216e-07
2.55832e-07
2.1064e-07
2.10611e-07
2.1064e-07
2.55859e-07
2.56221e-07
2.55819e-07
2.10642e-07
2.10674e-07
2.10619e-07
2.10646e-07
2.56239e-07
2.55822e-07
2.10614e-07
2.10653e-07
2.10596e-07
2.10637e-07
2.1066e-07
2.10586e-07
2.10635e-07
2.56233e-07
2.5583e-07
2.1064e-07
2.10595e-07
2.10617e-07
2.55861e-07
2.56216e-07
2.5579e-07
2.10612e-07
2.10636e-07
2.10588e-07
2.10606e-07
2.56218e-07
2.55776e-07
2.10592e-07
2.10633e-07
2.10571e-07
2.10611e-07
2.10627e-07
2.10558e-07
2.10599e-07
2.56227e-07
2.55802e-07
2.10609e-07
2.10576e-07
2.10583e-07
2.55812e-07
2.56184e-07
2.55721e-07
2.10584e-07
2.10601e-07
2.10551e-07
2.10556e-07
2.56168e-07
2.55685e-07
2.10567e-07
2.10607e-07
2.10535e-07
2.10575e-07
2.10594e-07
2.10501e-07
2.10541e-07
2.56194e-07
2.55727e-07
2.10578e-07
2.10536e-07
2.10529e-07
2.55706e-07
2.56106e-07
2.5558e-07
2.10523e-07
2.10521e-07
2.10423e-07
2.10424e-07
2.56067e-07
2.55545e-07
2.10506e-07
2.10546e-07
2.10404e-07
2.10439e-07
2.10504e-07
2.10377e-07
2.10405e-07
2.56112e-07
2.55582e-07
2.10493e-07
2.1041e-07
2.1039e-07
2.5556e-07
2.55965e-07
2.5553e-07
2.10405e-07
2.10414e-07
2.10385e-07
2.10401e-07
2.55934e-07
2.55512e-07
2.10389e-07
2.10421e-07
2.1037e-07
2.10401e-07
2.10397e-07
2.10357e-07
2.10385e-07
2.55967e-07
2.55528e-07
2.10378e-07
2.10374e-07
2.10364e-07
2.55524e-07
2.5593e-07
2.55539e-07
2.1039e-07
2.10409e-07
2.10388e-07
2.10407e-07
2.55914e-07
2.55519e-07
2.10375e-07
2.10407e-07
2.10371e-07
2.10405e-07
2.10395e-07
2.1036e-07
2.10393e-07
2.55928e-07
2.55539e-07
2.10373e-07
2.10375e-07
2.10372e-07
2.55532e-07
2.55938e-07
2.55539e-07
2.10399e-07
2.10417e-07
2.10395e-07
2.10412e-07
2.55919e-07
2.55521e-07
2.10382e-07
2.10416e-07
2.10377e-07
2.10412e-07
2.10404e-07
2.10359e-07
2.10399e-07
2.55937e-07
2.55537e-07
2.10382e-07
2.10375e-07
2.10378e-07
2.55541e-07
2.55939e-07
2.55542e-07
2.10399e-07
2.10417e-07
2.10393e-07
2.10411e-07
2.55922e-07
2.55522e-07
2.10382e-07
2.10418e-07
2.10375e-07
2.10411e-07
2.10404e-07
2.10359e-07
2.10399e-07
2.55937e-07
2.55541e-07
2.10383e-07
2.10375e-07
2.10377e-07
2.5555e-07
2.5594e-07
2.55542e-07
2.10398e-07
2.10416e-07
2.10392e-07
2.10411e-07
2.55922e-07
2.55522e-07
2.1038e-07
2.10417e-07
2.10375e-07
2.10412e-07
2.10405e-07
2.10359e-07
2.10399e-07
2.5594e-07
2.55541e-07
2.10383e-07
2.10375e-07
2.10378e-07
2.55547e-07
2.55941e-07
2.55542e-07
2.10398e-07
2.10417e-07
2.10392e-07
2.10411e-07
2.55922e-07
2.55524e-07
2.1038e-07
2.10419e-07
2.10375e-07
2.10412e-07
2.10404e-07
2.10359e-07
2.10399e-07
2.5594e-07
2.55542e-07
2.10383e-07
2.10375e-07
2.10377e-07
2.55548e-07
2.55941e-07
2.55541e-07
2.10398e-07
2.10417e-07
2.10393e-07
2.10411e-07
2.55923e-07
2.55523e-07
2.1038e-07
2.10418e-07
2.10375e-07
2.10412e-07
2.10404e-07
2.10359e-07
2.10398e-07
2.55941e-07
2.5554e-07
2.10383e-07
2.10375e-07
2.10377e-07
2.55547e-07
2.55941e-07
2.5554e-07
2.10398e-07
2.10417e-07
2.10392e-07
2.10411e-07
2.55923e-07
2.55522e-07
2.1038e-07
2.10418e-07
2.10374e-07
2.10412e-07
2.10404e-07
2.10359e-07
2.10398e-07
2.5594e-07
2.55539e-07
2.10382e-07
2.10375e-07
2.10376e-07
2.55546e-07
2.5594e-07
2.55539e-07
2.10397e-07
2.10416e-07
2.10391e-07
2.1041e-07
2.55922e-07
2.55521e-07
2.1038e-07
2.10417e-07
2.10373e-07
2.10411e-07
2.10403e-07
2.10357e-07
2.10397e-07
2.55938e-07
2.55539e-07
2.10382e-07
2.10374e-07
2.10375e-07
2.55545e-07
2.55938e-07
2.55538e-07
2.10396e-07
2.10415e-07
2.10389e-07
2.10408e-07
2.55921e-07
2.55519e-07
2.10379e-07
2.10416e-07
2.10372e-07
2.10409e-07
2.10402e-07
2.10356e-07
2.10395e-07
2.55937e-07
2.55537e-07
2.1038e-07
2.10372e-07
2.10373e-07
2.55542e-07
2.55937e-07
2.55535e-07
2.10394e-07
2.10413e-07
2.10386e-07
2.10404e-07
2.55918e-07
2.55516e-07
2.10377e-07
2.10414e-07
2.10368e-07
2.10406e-07
2.104e-07
2.10353e-07
2.10392e-07
2.55935e-07
2.55534e-07
2.10379e-07
2.10368e-07
2.1037e-07
2.55542e-07
2.55934e-07
2.55532e-07
2.10391e-07
2.10409e-07
2.1038e-07
2.10398e-07
2.55915e-07
2.55512e-07
2.10373e-07
2.10411e-07
2.10362e-07
2.10399e-07
2.10397e-07
2.10348e-07
2.10386e-07
2.55932e-07
2.5553e-07
2.10375e-07
2.10363e-07
2.10364e-07
2.55539e-07
2.5593e-07
2.55525e-07
2.10384e-07
2.10403e-07
2.10369e-07
2.10387e-07
2.55911e-07
2.55506e-07
2.10367e-07
2.10404e-07
2.10351e-07
2.10389e-07
2.1039e-07
2.10339e-07
2.10375e-07
2.55927e-07
2.55523e-07
2.10369e-07
2.10354e-07
2.10354e-07
2.55533e-07
2.55922e-07
2.55515e-07
2.10373e-07
2.10391e-07
2.10352e-07
2.1037e-07
2.55904e-07
2.55497e-07
2.10355e-07
2.10393e-07
2.10334e-07
2.10372e-07
2.10379e-07
2.10321e-07
2.10357e-07
2.55919e-07
2.55513e-07
2.10358e-07
2.10336e-07
2.10336e-07
2.55521e-07
2.55911e-07
2.55499e-07
2.10356e-07
2.10374e-07
2.10323e-07
2.1034e-07
2.55894e-07
2.55482e-07
2.10338e-07
2.10376e-07
2.10305e-07
2.10342e-07
2.10361e-07
2.10292e-07
2.10327e-07
2.55909e-07
2.555e-07
2.1034e-07
2.10307e-07
2.10305e-07
2.55503e-07
2.5589e-07
2.55432e-07
2.10328e-07
2.10342e-07
2.10231e-07
2.10245e-07
2.55874e-07
2.55417e-07
2.10309e-07
2.10346e-07
2.1021e-07
2.10247e-07
2.1033e-07
2.102e-07
2.10236e-07
2.55889e-07
2.55435e-07
2.10309e-07
2.10213e-07
2.1021e-07
2.55437e-07
2.55817e-07
2.52073e-07
2.10317e-07
2.10331e-07
2.07052e-07
2.07065e-07
2.55802e-07
2.52065e-07
2.10296e-07
2.10335e-07
2.07039e-07
2.0706e-07
2.10323e-07
2.07036e-07
2.07055e-07
2.55817e-07
2.52073e-07
2.10296e-07
2.07041e-07
2.07037e-07
2.52069e-07
2.47989e-07
2.0509e-07
2.05101e-07
2.47984e-07
2.0508e-07
2.05096e-07
1.7119e-07
1.71189e-07
1.71188e-07
2.05093e-07
2.47989e-07
2.05079e-07
1.72546e-07
1.72556e-07
1.72562e-07
1.72557e-07
2.27377e-06
8.70486e-06
2.27436e-06
8.70446e-06
1.90917e-05
1.90928e-05
2.27392e-06
8.70696e-06
2.27445e-06
8.70645e-06
1.7257e-07
1.72562e-07
1.7257e-07
1.72553e-07
1.72565e-07
1.72552e-07
1.72564e-07
5.65853e-07
1.84777e-06
1.84176e-07
2.10515e-07
5.66102e-07
1.84688e-06
1.84189e-07
1.90914e-05
1.90927e-05
5.65848e-07
1.84177e-07
1.84769e-06
2.1052e-07
5.66083e-07
1.84185e-07
1.84671e-06
4.17874e-06
4.18037e-06
2.55621e-07
4.17819e-06
4.17983e-06
2.27404e-06
8.70435e-06
2.27464e-06
8.70408e-06
1.90908e-05
1.90919e-05
2.27417e-06
8.70629e-06
2.27474e-06
8.70599e-06
1.72565e-07
1.72559e-07
1.72571e-07
1.72554e-07
1.72558e-07
1.72555e-07
1.72565e-07
5.65988e-07
1.84823e-06
1.8419e-07
2.10531e-07
5.66246e-07
1.84713e-06
1.84203e-07
1.90908e-05
1.90921e-05
5.6601e-07
1.84186e-07
1.84801e-06
2.10536e-07
5.66268e-07
1.84199e-07
1.84699e-06
4.17909e-06
4.18072e-06
2.5565e-07
4.1786e-06
4.18025e-06
2.27432e-06
8.70413e-06
2.27491e-06
8.70396e-06
1.90903e-05
1.90917e-05
2.27442e-06
8.70601e-06
2.27497e-06
8.7058e-06
1.72567e-07
1.72563e-07
1.72572e-07
1.72556e-07
1.72563e-07
1.72559e-07
1.72568e-07
5.66102e-07
1.84825e-06
1.84196e-07
2.10548e-07
5.66367e-07
1.84708e-06
1.84207e-07
1.90902e-05
1.90917e-05
5.66136e-07
1.84196e-07
1.84817e-06
2.10553e-07
5.66402e-07
1.84206e-07
1.84709e-06
4.17954e-06
4.18118e-06
2.55679e-07
4.17904e-06
4.1807e-06
2.27471e-06
8.70415e-06
2.27526e-06
8.70404e-06
1.90903e-05
1.90919e-05
2.27477e-06
8.70596e-06
2.27527e-06
8.70582e-06
1.72573e-07
1.72567e-07
1.72575e-07
1.72557e-07
1.7257e-07
1.72564e-07
1.72573e-07
5.66216e-07
1.8482e-06
1.84205e-07
2.10564e-07
5.66479e-07
1.84709e-06
1.84217e-07
1.90901e-05
1.90917e-05
5.66263e-07
1.84203e-07
1.84822e-06
2.10569e-07
5.66528e-07
1.84215e-07
1.84715e-06
4.17995e-06
4.18159e-06
2.5571e-07
4.17943e-06
4.18108e-06
2.27501e-06
8.70433e-06
2.27562e-06
8.70426e-06
1.90907e-05
1.90924e-05
2.2751e-06
8.70613e-06
2.27564e-06
8.70606e-06
1.72581e-07
1.72575e-07
1.72585e-07
1.72567e-07
1.7258e-07
1.72572e-07
1.72582e-07
5.66319e-07
1.84828e-06
1.84215e-07
2.10581e-07
5.6659e-07
1.84719e-06
1.84228e-07
1.90904e-05
1.9092e-05
5.66364e-07
1.84212e-07
1.84831e-06
2.10586e-07
5.66643e-07
1.84225e-07
1.84726e-06
4.18029e-06
4.18192e-06
2.55748e-07
4.17974e-06
4.18138e-06
2.27517e-06
8.70461e-06
2.2758e-06
8.70458e-06
1.90913e-05
1.9093e-05
2.27531e-06
8.70662e-06
2.27588e-06
8.70665e-06
1.72594e-07
1.72583e-07
1.72594e-07
1.72563e-07
1.72592e-07
1.72578e-07
1.7259e-07
5.66394e-07
1.84841e-06
1.84227e-07
2.10598e-07
5.66674e-07
1.84732e-06
1.8424e-07
1.90909e-05
1.90927e-05
5.66439e-07
1.84221e-07
1.84846e-06
2.10603e-07
5.66725e-07
1.84232e-07
1.84742e-06
4.18057e-06
4.18219e-06
2.55784e-07
4.18e-06
4.18163e-06
2.27532e-06
8.70499e-06
2.27596e-06
8.70498e-06
1.90921e-05
1.90938e-05
2.27548e-06
8.70714e-06
2.27606e-06
8.70706e-06
1.72599e-07
1.72578e-07
1.726e-07
1.72557e-07
1.72585e-07
1.72563e-07
1.72585e-07
5.66465e-07
1.84854e-06
1.84235e-07
2.10615e-07
5.66745e-07
1.84745e-06
1.84235e-07
1.90916e-05
1.90934e-05
5.66516e-07
1.84226e-07
1.84861e-06
2.10619e-07
5.66797e-07
1.84233e-07
1.84757e-06
4.18077e-06
4.18239e-06
2.55816e-07
4.18016e-06
4.1818e-06
2.27542e-06
8.70537e-06
2.27609e-06
8.70531e-06
1.90928e-05
1.90945e-05
2.27557e-06
8.7074e-06
2.27619e-06
8.70727e-06
1.72584e-07
1.72561e-07
1.72583e-07
1.72549e-07
1.72566e-07
1.72546e-07
1.72565e-07
5.66516e-07
1.84863e-06
1.84218e-07
2.10618e-07
5.66807e-07
1.84752e-06
1.84217e-07
1.90924e-05
1.90942e-05
5.66572e-07
1.84218e-07
1.84874e-06
2.10622e-07
5.66861e-07
1.84217e-07
1.84766e-06
4.18089e-06
4.18253e-06
2.55846e-07
4.18024e-06
4.18189e-06
2.27542e-06
8.70561e-06
2.27612e-06
8.70552e-06
1.90934e-05
1.90949e-05
2.27556e-06
8.70754e-06
2.27622e-06
8.7074e-06
1.72563e-07
1.72544e-07
1.72562e-07
1.7253e-07
1.72539e-07
1.72528e-07
1.72537e-07
5.66531e-07
1.84868e-06
1.842e-07
2.10598e-07
5.66837e-07
1.84755e-06
1.84198e-07
1.9093e-05
1.90947e-05
5.66592e-07
1.842e-07
1.84878e-06
2.10605e-07
5.66896e-07
1.84199e-07
1.84768e-06
4.18088e-06
4.18253e-06
2.55866e-07
4.18019e-06
4.18186e-06
2.27537e-06
8.7058e-06
2.27609e-06
8.70571e-06
1.90935e-05
1.90949e-05
2.2755e-06
8.70771e-06
2.27616e-06
8.70759e-06
1.72533e-07
1.72526e-07
1.72533e-07
1.72507e-07
1.72505e-07
1.72505e-07
1.7251e-07
5.665e-07
1.84869e-06
1.8418e-07
2.10576e-07
5.66821e-07
1.84756e-06
1.84178e-07
1.90934e-05
1.9095e-05
5.66567e-07
1.84183e-07
1.84878e-06
2.10589e-07
5.66891e-07
1.84181e-07
1.84769e-06
4.18084e-06
4.18251e-06
2.55843e-07
4.18019e-06
4.18187e-06
2.27547e-06
8.70595e-06
2.27614e-06
8.70578e-06
1.90933e-05
1.90944e-05
2.27562e-06
8.70786e-06
2.27624e-06
8.70766e-06
1.72503e-07
1.72504e-07
1.72508e-07
1.72483e-07
1.7248e-07
1.72487e-07
1.72488e-07
5.66422e-07
1.84871e-06
1.84159e-07
2.1054e-07
5.66771e-07
1.84755e-06
1.84155e-07
1.90933e-05
1.90945e-05
5.66499e-07
1.84164e-07
1.8488e-06
2.10562e-07
5.6684e-07
1.84162e-07
1.84771e-06
4.18092e-06
4.18259e-06
2.55767e-07
4.18028e-06
4.18196e-06
2.27535e-06
8.70579e-06
2.27613e-06
8.70553e-06
1.90926e-05
1.90938e-05
2.27547e-06
8.7077e-06
2.27621e-06
8.70741e-06
1.72461e-07
1.7248e-07
1.72469e-07
1.72386e-07
1.72367e-07
1.72384e-07
1.72368e-07
5.66248e-07
1.84864e-06
1.84104e-07
2.10435e-07
5.66624e-07
1.84746e-06
1.84078e-07
1.90925e-05
1.90937e-05
5.6634e-07
1.84125e-07
1.84878e-06
2.10483e-07
5.66718e-07
1.84107e-07
1.84764e-06
4.18099e-06
4.18265e-06
2.55623e-07
4.18033e-06
4.182e-06
2.27516e-06
8.70551e-06
2.27593e-06
8.70524e-06
1.90921e-05
1.90935e-05
2.2753e-06
8.70742e-06
2.27601e-06
8.70714e-06
1.72365e-07
1.72371e-07
1.72364e-07
1.72351e-07
1.72354e-07
1.72356e-07
1.72355e-07
5.66114e-07
1.84851e-06
1.83998e-07
2.10365e-07
5.6646e-07
1.84733e-06
1.84001e-07
1.90919e-05
1.90933e-05
5.66176e-07
1.84008e-07
1.84868e-06
2.10386e-07
5.66539e-07
1.84008e-07
1.84754e-06
4.18098e-06
4.18264e-06
2.55527e-07
4.18029e-06
4.18196e-06
2.27503e-06
8.70528e-06
2.27577e-06
8.70508e-06
1.90919e-05
1.90933e-05
2.27519e-06
8.70722e-06
2.27587e-06
8.707e-06
1.72365e-07
1.72367e-07
1.72368e-07
1.72356e-07
1.7236e-07
1.72362e-07
1.7236e-07
5.6607e-07
1.84841e-06
1.83994e-07
2.10364e-07
5.66384e-07
1.84725e-06
1.84006e-07
1.90917e-05
1.90931e-05
5.66102e-07
1.83996e-07
1.84858e-06
2.10378e-07
5.66428e-07
1.84006e-07
1.84745e-06
4.18093e-06
4.18259e-06
2.55528e-07
4.18024e-06
4.18192e-06
2.27499e-06
8.70523e-06
2.27569e-06
8.70506e-06
1.90919e-05
1.90933e-05
2.27515e-06
8.70717e-06
2.2758e-06
8.70698e-06
1.72367e-07
1.72371e-07
1.72368e-07
1.72355e-07
1.72363e-07
1.72366e-07
1.72364e-07
5.66076e-07
1.84838e-06
1.83997e-07
2.10365e-07
5.66379e-07
1.84724e-06
1.84005e-07
1.90916e-05
1.90931e-05
5.6609e-07
1.83999e-07
1.84852e-06
2.10382e-07
5.664e-07
1.84006e-07
1.84742e-06
4.18089e-06
4.18256e-06
2.55536e-07
4.18021e-06
4.18189e-06
2.27499e-06
8.70523e-06
2.27569e-06
8.70507e-06
1.90919e-05
1.90933e-05
2.27514e-06
8.70716e-06
2.27579e-06
8.70698e-06
1.72371e-07
1.72374e-07
1.72372e-07
1.72356e-07
1.72367e-07
1.7237e-07
1.72368e-07
5.66082e-07
1.84837e-06
1.83998e-07
2.10364e-07
5.66387e-07
1.84723e-06
1.84005e-07
1.90916e-05
1.90931e-05
5.66088e-07
1.84e-07
1.8485e-06
2.1038e-07
5.66398e-07
1.84007e-07
1.8474e-06
4.18087e-06
4.18253e-06
2.55547e-07
4.1802e-06
4.18187e-06
2.27499e-06
8.70523e-06
2.27569e-06
8.70508e-06
1.90918e-05
1.90933e-05
2.27515e-06
8.70716e-06
2.2758e-06
8.70698e-06
1.72375e-07
1.72378e-07
1.72376e-07
1.72356e-07
1.72369e-07
1.72373e-07
1.72371e-07
5.66083e-07
1.84837e-06
1.83997e-07
2.10365e-07
5.6639e-07
1.84723e-06
1.84004e-07
1.90916e-05
1.90932e-05
5.66085e-07
1.83999e-07
1.84848e-06
2.1038e-07
5.66396e-07
1.84006e-07
1.84738e-06
4.18086e-06
4.18252e-06
2.55549e-07
4.18019e-06
4.18186e-06
2.27499e-06
8.70524e-06
2.2757e-06
8.70513e-06
1.90918e-05
1.90934e-05
2.27514e-06
8.70717e-06
2.27579e-06
8.70712e-06
1.72376e-07
1.7238e-07
1.72378e-07
1.72357e-07
1.7237e-07
1.72374e-07
1.72372e-07
5.66079e-07
1.84836e-06
1.83997e-07
2.10364e-07
5.66389e-07
1.84721e-06
1.84006e-07
1.90916e-05
1.90933e-05
5.66076e-07
1.83999e-07
1.84846e-06
2.1038e-07
5.6639e-07
1.84006e-07
1.84735e-06
4.18083e-06
4.18249e-06
2.55548e-07
4.18017e-06
4.18184e-06
2.27497e-06
8.70527e-06
2.27571e-06
8.70519e-06
1.90918e-05
1.90937e-05
2.27513e-06
8.70732e-06
2.27581e-06
8.70726e-06
1.72376e-07
1.72381e-07
1.72378e-07
1.72357e-07
1.7237e-07
1.72374e-07
1.72371e-07
5.66075e-07
1.84835e-06
1.83998e-07
2.10365e-07
5.66391e-07
1.84718e-06
1.84006e-07
1.90916e-05
1.90936e-05
5.6607e-07
1.83999e-07
1.84845e-06
2.1038e-07
5.66388e-07
1.84006e-07
1.84732e-06
4.18081e-06
4.18247e-06
2.55547e-07
4.18011e-06
4.18178e-06
2.27499e-06
8.70531e-06
2.27575e-06
8.70531e-06
1.90917e-05
1.9094e-05
2.27514e-06
8.70742e-06
2.27586e-06
8.70741e-06
1.72376e-07
1.7238e-07
1.72378e-07
1.72357e-07
1.7237e-07
1.72374e-07
1.72371e-07
5.66075e-07
1.84833e-06
1.83999e-07
2.10365e-07
5.66396e-07
1.84715e-06
1.84005e-07
1.90915e-05
1.9094e-05
5.66067e-07
1.84e-07
1.84844e-06
2.1038e-07
5.66391e-07
1.84008e-07
1.84729e-06
4.18078e-06
4.18243e-06
2.55545e-07
4.18003e-06
4.18169e-06
2.27503e-06
8.7054e-06
2.27584e-06
8.70549e-06
1.90917e-05
1.90945e-05
2.27518e-06
8.70752e-06
2.27593e-06
8.70761e-06
1.72376e-07
1.7238e-07
1.72378e-07
1.72357e-07
1.7237e-07
1.72374e-07
1.72371e-07
5.66075e-07
1.84829e-06
1.83998e-07
2.10363e-07
5.66403e-07
1.84708e-06
1.84005e-07
1.90915e-05
1.90944e-05
5.66065e-07
1.84001e-07
1.84839e-06
2.1038e-07
5.66396e-07
1.84007e-07
1.84722e-06
4.18071e-06
4.18236e-06
2.55545e-07
4.17993e-06
4.18159e-06
2.27506e-06
8.70554e-06
2.27591e-06
8.70582e-06
1.90917e-05
1.90954e-05
2.27521e-06
8.70766e-06
2.276e-06
8.70793e-06
1.72376e-07
1.7238e-07
1.72378e-07
1.72357e-07
1.72369e-07
1.72373e-07
1.72371e-07
5.66072e-07
1.84818e-06
1.83998e-07
2.10362e-07
5.66411e-07
1.84694e-06
1.84006e-07
1.90915e-05
1.90953e-05
5.6606e-07
1.84e-07
1.84828e-06
2.10378e-07
5.66401e-07
1.84006e-07
1.84707e-06
4.18059e-06
4.18224e-06
2.55543e-07
4.17974e-06
4.18141e-06
2.27511e-06
8.70582e-06
2.27597e-06
8.70642e-06
1.90916e-05
1.90968e-05
2.27525e-06
8.70793e-06
2.27607e-06
8.7085e-06
1.72376e-07
1.7238e-07
1.72378e-07
1.72357e-07
1.72369e-07
1.72373e-07
1.7237e-07
5.66066e-07
1.84802e-06
1.83999e-07
2.10359e-07
5.6642e-07
1.84671e-06
1.84006e-07
1.90915e-05
1.90969e-05
5.66053e-07
1.84e-07
1.84811e-06
2.10375e-07
5.66408e-07
1.84007e-07
1.84684e-06
4.18043e-06
4.18208e-06
2.55543e-07
4.17957e-06
4.18123e-06
2.27517e-06
8.70632e-06
2.27603e-06
8.70745e-06
1.90908e-05
1.9098e-05
2.27531e-06
8.7084e-06
2.27612e-06
8.7095e-06
1.72376e-07
1.7238e-07
1.72377e-07
1.72357e-07
1.72368e-07
1.72372e-07
1.7237e-07
5.66052e-07
1.84778e-06
1.84e-07
2.10355e-07
5.66428e-07
1.84635e-06
1.84006e-07
1.90912e-05
1.90986e-05
5.66037e-07
1.84e-07
1.84787e-06
2.10371e-07
5.66415e-07
1.84009e-07
1.84648e-06
4.18082e-06
4.18247e-06
2.55541e-07
4.17991e-06
4.18157e-06
2.27529e-06
8.70713e-06
2.27609e-06
8.7091e-06
1.90889e-05
1.9099e-05
2.27542e-06
8.70915e-06
2.27617e-06
8.71108e-06
1.72375e-07
1.72379e-07
1.72377e-07
1.72358e-07
1.72367e-07
1.72371e-07
1.72368e-07
5.66028e-07
1.84745e-06
1.84001e-07
2.10348e-07
5.6644e-07
1.84578e-06
1.84009e-07
1.90896e-05
1.90999e-05
5.66008e-07
1.84001e-07
1.84752e-06
2.10364e-07
5.66422e-07
1.84007e-07
1.84589e-06
4.18162e-06
4.18327e-06
2.55536e-07
4.18035e-06
4.18201e-06
2.27554e-06
8.7079e-06
2.2762e-06
8.71039e-06
1.90855e-05
1.90998e-05
2.27566e-06
8.7099e-06
2.27627e-06
8.71242e-06
1.72374e-07
1.72378e-07
1.72376e-07
1.72359e-07
1.72364e-07
1.72368e-07
1.72366e-07
5.65988e-07
1.84707e-06
1.84001e-07
2.10337e-07
5.66458e-07
1.84543e-06
1.84009e-07
1.90866e-05
1.9101e-05
5.65965e-07
1.84001e-07
1.84724e-06
2.10352e-07
5.66436e-07
1.84012e-07
1.84568e-06
4.18253e-06
4.18417e-06
2.55527e-07
4.18072e-06
4.18237e-06
2.27604e-06
8.70623e-06
2.27639e-06
8.70959e-06
1.90799e-05
1.90997e-05
2.27617e-06
8.70825e-06
2.27646e-06
8.7116e-06
1.72373e-07
1.72377e-07
1.72374e-07
1.72359e-07
1.72361e-07
1.72365e-07
1.72362e-07
5.65922e-07
1.84812e-06
1.84002e-07
2.10315e-07
5.66488e-07
1.84637e-06
1.84005e-07
1.90813e-05
1.91012e-05
5.65901e-07
1.84002e-07
1.84839e-06
2.1033e-07
5.66466e-07
1.84005e-07
1.84667e-06
4.18371e-06
4.18531e-06
2.55513e-07
4.18118e-06
4.18278e-06
2.27708e-06
8.7009e-06
2.27685e-06
8.70629e-06
1.90713e-05
1.90977e-05
2.27717e-06
8.70277e-06
2.27689e-06
8.70813e-06
1.72369e-07
1.72373e-07
1.7237e-07
1.72338e-07
1.72343e-07
1.72347e-07
1.72344e-07
5.65803e-07
1.85084e-06
1.83994e-07
2.10271e-07
5.66561e-07
1.84841e-06
1.83997e-07
1.90731e-05
1.90994e-05
5.6579e-07
1.83997e-07
1.85112e-06
2.10285e-07
5.66544e-07
1.84e-07
1.84868e-06
4.18528e-06
4.18683e-06
2.5549e-07
4.18187e-06
4.18342e-06
2.27601e-06
8.68934e-06
2.27638e-06
8.69449e-06
1.90577e-05
1.90825e-05
2.27621e-06
8.69116e-06
2.27649e-06
8.69617e-06
1.72363e-07
1.72367e-07
1.72364e-07
1.72019e-07
1.72025e-07
1.72026e-07
1.72024e-07
5.6411e-07
1.85542e-06
1.83922e-07
2.09836e-07
5.66394e-07
1.84681e-06
1.84007e-07
1.90596e-05
1.90843e-05
5.64095e-07
1.83923e-07
1.85561e-06
2.09847e-07
5.66382e-07
1.84008e-07
1.84693e-06
4.18683e-06
4.18839e-06
2.54871e-07
4.17868e-06
4.18011e-06
1.63982e-06
7.63643e-06
2.22553e-06
4.30679e-06
1.64841e-05
7.67213e-06
1.64009e-06
7.63776e-06
2.22579e-06
4.3077e-06
1.60915e-07
1.64421e-07
1.6442e-07
1.73625e-07
1.61029e-07
1.65057e-07
1.65056e-07
5.23276e-07
1.74606e-06
1.81986e-07
2.01125e-07
5.50427e-07
1.78601e-06
1.79166e-07
1.64851e-05
7.67191e-06
5.23266e-07
1.81986e-07
1.74607e-06
2.01127e-07
5.50413e-07
1.79165e-07
1.78597e-06
4.07621e-06
4.07772e-06
2.38528e-07
3.52746e-06
3.52813e-06
1.90916e-05
1.90931e-05
4.17817e-06
4.17987e-06
8.70479e-06
2.27361e-06
8.70676e-06
8.70721e-06
2.27374e-06
1.84645e-06
1.84187e-07
5.65628e-07
2.10548e-07
1.84705e-06
1.84192e-07
1.84821e-06
5.6566e-07
1.90932e-05
1.9092e-05
2.55965e-07
4.17999e-06
4.17797e-06
4.18046e-06
4.17856e-06
1.90905e-05
1.90893e-05
8.70686e-06
2.27375e-06
1.84663e-06
1.8418e-07
5.65719e-07
8.70626e-06
2.27378e-06
1.84185e-07
1.84662e-06
5.65709e-07
5.66106e-07
2.10501e-07
1.84657e-06
1.84175e-07
1.84754e-06
1.84174e-07
5.65778e-07
2.27437e-06
8.70628e-06
8.7068e-06
2.27382e-06
5.66103e-07
2.10536e-07
1.84183e-07
1.84672e-06
1.84182e-07
1.84778e-06
5.65777e-07
2.27435e-06
8.70637e-06
8.70682e-06
2.2738e-06
1.9093e-05
4.17947e-06
4.1783e-06
1.90925e-05
1.84176e-07
1.84652e-06
5.65745e-07
2.10514e-07
1.84186e-07
1.84695e-06
1.84785e-06
5.65702e-07
8.7066e-06
2.27386e-06
8.70689e-06
8.70734e-06
2.27376e-06
2.55982e-07
4.17807e-06
4.17972e-06
4.17856e-06
4.18019e-06
1.90926e-05
1.90914e-05
1.90933e-05
1.90922e-05
1.90903e-05
1.90912e-05
1.90918e-05
1.90927e-05
4.17856e-06
4.18027e-06
2.55627e-07
4.17823e-06
4.17996e-06
1.90907e-05
1.90899e-05
1.90923e-05
1.90915e-05
2.56029e-07
4.17834e-06
4.18008e-06
4.17852e-06
4.18025e-06
2.27405e-06
8.70681e-06
2.27434e-06
8.70644e-06
5.65744e-07
1.84738e-06
1.84186e-07
2.10546e-07
5.65924e-07
1.84662e-06
1.84185e-07
5.6578e-07
1.84794e-06
1.84192e-07
2.10557e-07
5.65958e-07
1.8471e-06
1.8419e-07
2.27422e-06
8.70423e-06
8.70452e-06
2.27391e-06
2.27449e-06
8.70622e-06
8.7065e-06
2.27417e-06
5.66014e-07
2.10547e-07
1.84678e-06
1.8418e-07
1.84753e-06
1.8418e-07
5.65825e-07
5.66052e-07
2.10559e-07
1.8472e-06
1.84185e-07
1.84801e-06
1.84184e-07
5.65866e-07
4.1803e-06
4.17837e-06
2.55599e-07
4.18016e-06
4.17818e-06
1.90893e-05
1.90903e-05
1.90923e-05
1.90915e-05
2.56002e-07
4.18038e-06
4.17846e-06
4.18049e-06
4.1786e-06
1.90898e-05
1.9089e-05
5.65834e-07
1.84768e-06
1.8418e-07
2.10521e-07
5.66008e-07
1.84702e-06
1.8418e-07
2.27407e-06
8.70634e-06
2.27432e-06
8.70588e-06
5.65829e-07
1.84185e-07
1.8477e-06
2.1054e-07
5.66003e-07
1.84184e-07
1.84708e-06
2.27431e-06
8.70616e-06
8.70655e-06
2.27406e-06
5.66098e-07
2.10522e-07
1.84731e-06
1.84178e-07
1.84802e-06
1.84177e-07
5.65917e-07
2.27446e-06
8.70565e-06
8.70598e-06
2.27418e-06
5.66097e-07
2.10542e-07
1.8418e-07
1.84734e-06
1.84179e-07
1.84808e-06
5.65914e-07
2.27403e-06
8.70638e-06
2.27428e-06
8.70597e-06
5.65853e-07
1.84191e-07
1.8476e-06
2.10546e-07
5.66041e-07
1.84191e-07
1.84678e-06
2.27401e-06
8.70643e-06
2.27427e-06
8.70606e-06
5.66116e-07
2.10516e-07
1.84708e-06
1.84189e-07
1.84786e-06
1.84189e-07
5.65925e-07
2.27448e-06
8.70577e-06
8.70608e-06
2.2742e-06
5.66115e-07
2.10548e-07
1.84193e-07
1.84688e-06
1.84191e-07
1.84768e-06
5.65924e-07
2.27446e-06
8.70584e-06
8.70613e-06
2.27418e-06
4.18e-06
4.1787e-06
2.55614e-07
4.17966e-06
4.17837e-06
1.90913e-05
1.90922e-05
1.90924e-05
1.90914e-05
2.56015e-07
4.17984e-06
4.17849e-06
4.18006e-06
4.17867e-06
1.90918e-05
1.9091e-05
5.65818e-07
1.84186e-07
1.84784e-06
2.10524e-07
5.65991e-07
1.84184e-07
1.84701e-06
2.27414e-06
8.70665e-06
2.27445e-06
8.70623e-06
2.27405e-06
8.70695e-06
2.2743e-06
8.70659e-06
5.66123e-07
2.10521e-07
1.84185e-07
1.84688e-06
1.84184e-07
1.84762e-06
5.65938e-07
5.66083e-07
2.10525e-07
1.8418e-07
1.84712e-06
1.8418e-07
1.84792e-06
5.65903e-07
2.27459e-06
8.70599e-06
8.7063e-06
2.27425e-06
2.27444e-06
8.7064e-06
8.70666e-06
2.27417e-06
1.90913e-05
1.90921e-05
1.90921e-05
1.90928e-05
2.56023e-07
4.1784e-06
4.18004e-06
4.17852e-06
4.18015e-06
1.90915e-05
1.90908e-05
1.90923e-05
1.90916e-05
1.90895e-05
1.90903e-05
1.9091e-05
1.90918e-05
4.17865e-06
4.1804e-06
2.55652e-07
4.17853e-06
4.18029e-06
1.909e-05
1.9089e-05
1.90916e-05
1.90906e-05
2.56053e-07
4.17876e-06
4.18054e-06
4.17886e-06
4.18063e-06
2.27429e-06
8.70631e-06
2.27461e-06
8.70609e-06
5.65896e-07
1.84768e-06
1.84193e-07
2.10561e-07
5.66093e-07
1.8469e-06
1.84193e-07
5.65938e-07
1.84811e-06
1.84198e-07
2.10574e-07
5.66134e-07
1.84732e-06
1.84198e-07
2.27448e-06
8.70399e-06
8.70417e-06
2.27417e-06
2.27472e-06
8.70607e-06
8.7062e-06
2.27441e-06
5.66161e-07
2.1056e-07
1.84696e-06
1.84188e-07
1.84778e-06
1.84188e-07
5.65962e-07
5.66205e-07
2.10575e-07
1.84742e-06
1.84194e-07
1.84823e-06
1.84194e-07
5.66006e-07
4.18072e-06
4.17889e-06
2.55627e-07
4.18065e-06
4.17875e-06
1.90886e-05
1.90896e-05
1.90917e-05
1.90907e-05
2.56029e-07
4.18092e-06
4.17904e-06
4.181e-06
4.17918e-06
1.90894e-05
1.90883e-05
5.65988e-07
1.84826e-06
1.84192e-07
2.10538e-07
5.66179e-07
1.84743e-06
1.84192e-07
2.27429e-06
8.70576e-06
2.27457e-06
8.70547e-06
5.65985e-07
1.84193e-07
1.84829e-06
2.10561e-07
5.66179e-07
1.84193e-07
1.84743e-06
2.27456e-06
8.70585e-06
8.70611e-06
2.2743e-06
5.66246e-07
2.10538e-07
1.84746e-06
1.84187e-07
1.84835e-06
1.84187e-07
5.66051e-07
2.27467e-06
8.70538e-06
8.70559e-06
2.2744e-06
5.66248e-07
2.10563e-07
1.8419e-07
1.84745e-06
1.84189e-07
1.84836e-06
5.66049e-07
2.27436e-06
8.7059e-06
2.27465e-06
8.70566e-06
5.65987e-07
1.84205e-07
1.84778e-06
2.10563e-07
5.66184e-07
1.84205e-07
1.84699e-06
2.27433e-06
8.70594e-06
2.27463e-06
8.70572e-06
5.66249e-07
2.10533e-07
1.84713e-06
1.84196e-07
1.84805e-06
1.84201e-07
5.66048e-07
2.2748e-06
8.70564e-06
8.7058e-06
2.27449e-06
5.66247e-07
2.10564e-07
1.84199e-07
1.84709e-06
1.842e-07
1.84789e-06
5.66049e-07
2.27478e-06
8.7057e-06
8.70584e-06
2.27447e-06
4.18026e-06
4.17881e-06
2.55642e-07
4.18007e-06
4.17869e-06
1.90905e-05
1.90914e-05
1.90918e-05
1.90907e-05
2.56044e-07
4.18033e-06
4.17894e-06
4.1805e-06
4.17903e-06
1.90911e-05
1.90902e-05
5.65975e-07
1.84194e-07
1.84804e-06
2.1054e-07
5.66165e-07
1.84194e-07
1.84725e-06
2.27436e-06
8.70606e-06
2.27469e-06
8.7058e-06
2.27428e-06
8.70649e-06
2.27456e-06
8.70628e-06
5.66279e-07
2.10537e-07
1.84195e-07
1.84706e-06
1.84198e-07
1.84789e-06
5.66076e-07
5.66235e-07
2.10541e-07
1.84193e-07
1.84735e-06
1.84192e-07
1.84816e-06
5.66042e-07
2.2748e-06
8.7057e-06
8.7059e-06
2.27446e-06
2.27467e-06
8.70625e-06
8.70639e-06
2.27439e-06
1.90903e-05
1.90912e-05
1.90911e-05
1.90919e-05
2.56052e-07
4.17885e-06
4.1805e-06
4.17895e-06
4.18058e-06
1.9091e-05
1.909e-05
1.90917e-05
1.90908e-05
1.90888e-05
1.90898e-05
1.90904e-05
1.90914e-05
4.17908e-06
4.18087e-06
2.55677e-07
4.17899e-06
4.18079e-06
1.90898e-05
1.90887e-05
1.90914e-05
1.90902e-05
2.56079e-07
4.17923e-06
4.18103e-06
4.17932e-06
4.18112e-06
2.27455e-06
8.70618e-06
2.27485e-06
8.70604e-06
5.66028e-07
1.84784e-06
1.84195e-07
2.10574e-07
5.66228e-07
1.847e-06
1.84195e-07
5.66071e-07
1.84832e-06
1.84204e-07
2.10591e-07
5.66272e-07
1.84747e-06
1.84204e-07