/*--------------------------------*- C++ -*----------------------------------*\
| =========                 |                                                 |
| \\      /  F ield         | OpenFOAM: The Open Source CFD Toolbox           |
|  \\    /   O peration     | Version:  v1912                                 |
|   \\  /    A nd           | Website:  www.openfoam.com                      |
|    \\/     M anipulation  |                                                 |
\*---------------------------------------------------------------------------*/
FoamFile
{
    version     2.0;
    format      ascii;
    class       volScalarField;
    location    "60";
    object      k;
}
// * * * * * * * * * * * * * * * * * * * * * * * * * * * * * * * * * * * * * //

dimensions      [0 2 -2 0 0 0 0];


internalField   nonuniform List<scalar> 
57062
(
1.88844e-05
1.81903e-05
1.81905e-05
1.78551e-05
1.88848e-05
1.81914e-05
1.81912e-05
1.78567e-05
1.88848e-05
1.81924e-05
1.81922e-05
1.7858e-05
1.88841e-05
1.81929e-05
1.81929e-05
1.7859e-05
1.88845e-05
1.81933e-05
1.81925e-05
1.78601e-05
1.88851e-05
1.81941e-05
1.8193e-05
1.78612e-05
1.8884e-05
1.81944e-05
1.81922e-05
1.7862e-05
1.88824e-05
1.81932e-05
1.81912e-05
1.78628e-05
1.88817e-05
1.81921e-05
1.81908e-05
1.78627e-05
1.88804e-05
1.81903e-05
1.81896e-05
1.7861e-05
1.88785e-05
1.81877e-05
1.81875e-05
1.78561e-05
1.88751e-05
1.81793e-05
1.81824e-05
1.78481e-05
1.88659e-05
1.81754e-05
1.81752e-05
1.7842e-05
1.88668e-05
1.81764e-05
1.81761e-05
1.78432e-05
1.8868e-05
1.81773e-05
1.81771e-05
1.78443e-05
1.88691e-05
1.81775e-05
1.81775e-05
1.78454e-05
1.88696e-05
1.81777e-05
1.81776e-05
1.78457e-05
1.88698e-05
1.81777e-05
1.81776e-05
1.78458e-05
1.88697e-05
1.81777e-05
1.81776e-05
1.78457e-05
1.88697e-05
1.81778e-05
1.81777e-05
1.78456e-05
1.88697e-05
1.81778e-05
1.81777e-05
1.78456e-05
1.88697e-05
1.81778e-05
1.81778e-05
1.78455e-05
1.88697e-05
1.81779e-05
1.81779e-05
1.78456e-05
1.88697e-05
1.81781e-05
1.81779e-05
1.78456e-05
1.88698e-05
1.81783e-05
1.81781e-05
1.78455e-05
1.88699e-05
1.81785e-05
1.81784e-05
1.78455e-05
1.88701e-05
1.81791e-05
1.81789e-05
1.78454e-05
1.88703e-05
1.81796e-05
1.81794e-05
1.78453e-05
1.8872e-05
1.818e-05
1.81798e-05
1.78448e-05
1.89095e-05
1.81664e-05
1.81663e-05
1.78649e-05
1.78556e-05
1.81904e-05
1.81902e-05
1.78555e-05
1.81909e-05
1.81899e-05
1.81902e-05
1.81903e-05
1.78551e-05
1.81904e-05
1.81909e-05
1.7856e-05
1.78553e-05
1.78565e-05
1.81904e-05
1.81908e-05
1.81903e-05
1.81908e-05
1.78555e-05
1.7857e-05
1.81909e-05
1.81899e-05
1.81909e-05
1.819e-05
1.81909e-05
1.81913e-05
1.8191e-05
1.78548e-05
1.78562e-05
1.81915e-05
1.81911e-05
1.81915e-05
1.78576e-05
1.78565e-05
1.78577e-05
1.81913e-05
1.81918e-05
1.81912e-05
1.81919e-05
1.78569e-05
1.78584e-05
1.81918e-05
1.81909e-05
1.81917e-05
1.81906e-05
1.8192e-05
1.81923e-05
1.81921e-05
1.78562e-05
1.78575e-05
1.81926e-05
1.81921e-05
1.81926e-05
1.78589e-05
1.78577e-05
1.78588e-05
1.81919e-05
1.81928e-05
1.81915e-05
1.81926e-05
1.78584e-05
1.78596e-05
1.81922e-05
1.81912e-05
1.81919e-05
1.81909e-05
1.81929e-05
1.81929e-05
1.81925e-05
1.78574e-05
1.78589e-05
1.81935e-05
1.81929e-05
1.81932e-05
1.786e-05
1.78587e-05
1.78599e-05
1.81922e-05
1.81932e-05
1.8192e-05
1.81931e-05
1.78596e-05
1.7861e-05
1.81924e-05
1.81916e-05
1.81923e-05
1.81914e-05
1.81931e-05
1.81933e-05
1.81929e-05
1.78588e-05
1.78598e-05
1.81938e-05
1.81926e-05
1.81936e-05
1.78611e-05
1.78599e-05
1.78607e-05
1.81926e-05
1.81939e-05
1.81925e-05
1.81936e-05
1.7861e-05
1.78622e-05
1.81932e-05
1.81922e-05
1.8193e-05
1.8192e-05
1.81936e-05
1.81941e-05
1.81934e-05
1.78598e-05
1.78605e-05
1.81943e-05
1.8193e-05
1.8194e-05
1.78622e-05
1.78607e-05
1.78615e-05
1.81933e-05
1.81945e-05
1.81931e-05
1.81943e-05
1.78622e-05
1.78631e-05
1.81937e-05
1.81928e-05
1.81932e-05
1.81918e-05
1.81942e-05
1.81947e-05
1.8194e-05
1.78605e-05
1.7861e-05
1.81947e-05
1.81925e-05
1.81943e-05
1.78629e-05
1.78614e-05
1.78615e-05
1.8193e-05
1.81949e-05
1.81917e-05
1.81941e-05
1.7863e-05
1.78636e-05
1.81936e-05
1.81921e-05
1.81929e-05
1.81914e-05
1.81948e-05
1.81934e-05
1.81946e-05
1.78611e-05
1.7861e-05
1.8195e-05
1.81913e-05
1.81948e-05
1.78638e-05
1.78615e-05
1.78612e-05
1.81921e-05
1.81939e-05
1.81918e-05
1.81927e-05
1.78636e-05
1.78625e-05
1.81927e-05
1.81913e-05
1.81914e-05
1.81902e-05
1.81946e-05
1.81923e-05
1.81936e-05
1.7861e-05
1.78607e-05
1.81949e-05
1.81909e-05
1.8194e-05
1.78638e-05
1.78611e-05
1.78601e-05
1.8192e-05
1.81926e-05
1.81905e-05
1.81909e-05
1.78624e-05
1.78606e-05
1.81914e-05
1.81909e-05
1.81909e-05
1.81905e-05
1.81934e-05
1.8191e-05
1.81917e-05
1.78606e-05
1.78597e-05
1.81938e-05
1.819e-05
1.81922e-05
1.78625e-05
1.78599e-05
1.78576e-05
1.81899e-05
1.81904e-05
1.81874e-05
1.81875e-05
1.78602e-05
1.78571e-05
1.81908e-05
1.81901e-05
1.81887e-05
1.81872e-05
1.81912e-05
1.81883e-05
1.81881e-05
1.78594e-05
1.78571e-05
1.81917e-05
1.8188e-05
1.81889e-05
1.78582e-05
1.78569e-05
1.78527e-05
1.81871e-05
1.81871e-05
1.81847e-05
1.81835e-05
1.78562e-05
1.7851e-05
1.81883e-05
1.81868e-05
1.81858e-05
1.81844e-05
1.81877e-05
1.81833e-05
1.81831e-05
1.78563e-05
1.7852e-05
1.81885e-05
1.81853e-05
1.81846e-05
1.78509e-05
1.78511e-05
1.78444e-05
1.81821e-05
1.81801e-05
1.81745e-05
1.81739e-05
1.78491e-05
1.78435e-05
1.81831e-05
1.81819e-05
1.81753e-05
1.81738e-05
1.81795e-05
1.81754e-05
1.81737e-05
1.78504e-05
1.78436e-05
1.81811e-05
1.81753e-05
1.81744e-05
1.78433e-05
1.78436e-05
1.78443e-05
1.81749e-05
1.81745e-05
1.81749e-05
1.81746e-05
1.78431e-05
1.78444e-05
1.81757e-05
1.8174e-05
1.81756e-05
1.81739e-05
1.81743e-05
1.81763e-05
1.81744e-05
1.78429e-05
1.78436e-05
1.81749e-05
1.8176e-05
1.81749e-05
1.78441e-05
1.78443e-05
1.78455e-05
1.81759e-05
1.81756e-05
1.8176e-05
1.81757e-05
1.78444e-05
1.78452e-05
1.81767e-05
1.8175e-05
1.81768e-05
1.8175e-05
1.81755e-05
1.81773e-05
1.81756e-05
1.78436e-05
1.78445e-05
1.8176e-05
1.8177e-05
1.81761e-05
1.78452e-05
1.78454e-05
1.78464e-05
1.81771e-05
1.81767e-05
1.81772e-05
1.81768e-05
1.78452e-05
1.78459e-05
1.81778e-05
1.81761e-05
1.81779e-05
1.81762e-05
1.81767e-05
1.81776e-05
1.81768e-05
1.78444e-05
1.78456e-05
1.81772e-05
1.81776e-05
1.81773e-05
1.78464e-05
1.78463e-05
1.78464e-05
1.8178e-05
1.81778e-05
1.81775e-05
1.81775e-05
1.78458e-05
1.7846e-05
1.81786e-05
1.81772e-05
1.81782e-05
1.81769e-05
1.81778e-05
1.81777e-05
1.81777e-05
1.78455e-05
1.78456e-05
1.81783e-05
1.81776e-05
1.81782e-05
1.78468e-05
1.78464e-05
1.78465e-05
1.8178e-05
1.8178e-05
1.81777e-05
1.81777e-05
1.78459e-05
1.78461e-05
1.81787e-05
1.81774e-05
1.81783e-05
1.81771e-05
1.81782e-05
1.81777e-05
1.81778e-05
1.78456e-05
1.78457e-05
1.81787e-05
1.81777e-05
1.81783e-05
1.78468e-05
1.78464e-05
1.78464e-05
1.81781e-05
1.81782e-05
1.81776e-05
1.81777e-05
1.7846e-05
1.78461e-05
1.81788e-05
1.81776e-05
1.81783e-05
1.81773e-05
1.81783e-05
1.81778e-05
1.81778e-05
1.78456e-05
1.78457e-05
1.81788e-05
1.81777e-05
1.81784e-05
1.78467e-05
1.78464e-05
1.78464e-05
1.81781e-05
1.81782e-05
1.81776e-05
1.81777e-05
1.78461e-05
1.78461e-05
1.81788e-05
1.81778e-05
1.81782e-05
1.81772e-05
1.81783e-05
1.81778e-05
1.81778e-05
1.78457e-05
1.78457e-05
1.81788e-05
1.81777e-05
1.81783e-05
1.78466e-05
1.78464e-05
1.78463e-05
1.81781e-05
1.81782e-05
1.81776e-05
1.81777e-05
1.78461e-05
1.7846e-05
1.81787e-05
1.81777e-05
1.81782e-05
1.81772e-05
1.81783e-05
1.81778e-05
1.81778e-05
1.78456e-05
1.78456e-05
1.81788e-05
1.81777e-05
1.81783e-05
1.78467e-05
1.78463e-05
1.78463e-05
1.81781e-05
1.81782e-05
1.81776e-05
1.81776e-05
1.7846e-05
1.7846e-05
1.81787e-05
1.81777e-05
1.81782e-05
1.81772e-05
1.81783e-05
1.81779e-05
1.81777e-05
1.78456e-05
1.78455e-05
1.81788e-05
1.81778e-05
1.81783e-05
1.78465e-05
1.78463e-05
1.78462e-05
1.81781e-05
1.81781e-05
1.81775e-05
1.81776e-05
1.7846e-05
1.78459e-05
1.81787e-05
1.81777e-05
1.81782e-05
1.81772e-05
1.81782e-05
1.81779e-05
1.81777e-05
1.78455e-05
1.78455e-05
1.81787e-05
1.81779e-05
1.81782e-05
1.78465e-05
1.78461e-05
1.78461e-05
1.8178e-05
1.81781e-05
1.81775e-05
1.81776e-05
1.78458e-05
1.78458e-05
1.81787e-05
1.81777e-05
1.81782e-05
1.81772e-05
1.81782e-05
1.81781e-05
1.81777e-05
1.78454e-05
1.78454e-05
1.81788e-05
1.81779e-05
1.81783e-05
1.78465e-05
1.78461e-05
1.7846e-05
1.8178e-05
1.81781e-05
1.81775e-05
1.81776e-05
1.78458e-05
1.78458e-05
1.81787e-05
1.81777e-05
1.81781e-05
1.81771e-05
1.81782e-05
1.81783e-05
1.81777e-05
1.78453e-05
1.78453e-05
1.81788e-05
1.81781e-05
1.81782e-05
1.78465e-05
1.78461e-05
1.7846e-05
1.8178e-05
1.81781e-05
1.81775e-05
1.81775e-05
1.78458e-05
1.78458e-05
1.81787e-05
1.81777e-05
1.81781e-05
1.81771e-05
1.81782e-05
1.81785e-05
1.81776e-05
1.78453e-05
1.78453e-05
1.81788e-05
1.81784e-05
1.81782e-05
1.78464e-05
1.78459e-05
1.78461e-05
1.81781e-05
1.81781e-05
1.81775e-05
1.81776e-05
1.78457e-05
1.7846e-05
1.81787e-05
1.81777e-05
1.81782e-05
1.81771e-05
1.81782e-05
1.81791e-05
1.81776e-05
1.78452e-05
1.78455e-05
1.81788e-05
1.81789e-05
1.81781e-05
1.78463e-05
1.78461e-05
1.78463e-05
1.81782e-05
1.81782e-05
1.81775e-05
1.81776e-05
1.7846e-05
1.78463e-05
1.81788e-05
1.81778e-05
1.81782e-05
1.81772e-05
1.81783e-05
1.81795e-05
1.81776e-05
1.78456e-05
1.78458e-05
1.81788e-05
1.81793e-05
1.81782e-05
1.78465e-05
1.78463e-05
1.78464e-05
1.81783e-05
1.81783e-05
1.81776e-05
1.81781e-05
1.78463e-05
1.78466e-05
1.81789e-05
1.81779e-05
1.81782e-05
1.81772e-05
1.81783e-05
1.81798e-05
1.81776e-05
1.78457e-05
1.7846e-05
1.81789e-05
1.81796e-05
1.81787e-05
1.78468e-05
1.78458e-05
1.78562e-05
1.81783e-05
1.81792e-05
1.81787e-05
1.81795e-05
1.78459e-05
1.78565e-05
1.81789e-05
1.81779e-05
1.81792e-05
1.81785e-05
1.81783e-05
1.81814e-05
1.81788e-05
1.78454e-05
1.7856e-05
1.81798e-05
1.81813e-05
1.81801e-05
1.78565e-05
1.78651e-05
1.81658e-05
1.81664e-05
1.78654e-05
1.81663e-05
1.81653e-05
1.891e-05
1.891e-05
1.89098e-05
1.81659e-05
1.78649e-05
1.81671e-05
1.88845e-05
1.8885e-05
1.88848e-05
1.88848e-05
3.34245e-05
6.89645e-05
3.34275e-05
6.89624e-05
7.11837e-05
7.11864e-05
3.34289e-05
6.89711e-05
3.34316e-05
6.89684e-05
1.8886e-05
1.88848e-05
1.88859e-05
1.88849e-05
1.88854e-05
1.88842e-05
1.88853e-05
1.94381e-05
3.1633e-05
1.84065e-05
1.81913e-05
1.94395e-05
3.16318e-05
1.84076e-05
7.1179e-05
7.11823e-05
1.94377e-05
1.84063e-05
3.16341e-05
1.81911e-05
1.94388e-05
1.84069e-05
3.16277e-05
4.70065e-05
4.70157e-05
1.78571e-05
4.70043e-05
4.70136e-05
3.34297e-05
6.89618e-05
3.34325e-05
6.89604e-05
7.11813e-05
7.11842e-05
3.34341e-05
6.89676e-05
3.34366e-05
6.8966e-05
1.8886e-05
1.88847e-05
1.88858e-05
1.8885e-05
1.88856e-05
1.88844e-05
1.88855e-05
1.94411e-05
3.16439e-05
1.84072e-05
1.81923e-05
1.94427e-05
3.16344e-05
1.84079e-05
7.11776e-05
7.11807e-05
1.94411e-05
1.84069e-05
3.16394e-05
1.81921e-05
1.94426e-05
1.84079e-05
3.16317e-05
4.70118e-05
4.70209e-05
1.78585e-05
4.70102e-05
4.70194e-05
3.34362e-05
6.89607e-05
3.34383e-05
6.89598e-05
7.11802e-05
7.11836e-05
3.34398e-05
6.89661e-05
3.3442e-05
6.8965e-05
1.88862e-05
1.8885e-05
1.8886e-05
1.88841e-05
1.88857e-05
1.88846e-05
1.88855e-05
1.94438e-05
3.1641e-05
1.84073e-05
1.81932e-05
1.94454e-05
3.16308e-05
1.84078e-05
7.11761e-05
7.11797e-05
1.94438e-05
1.84075e-05
3.16407e-05
1.81931e-05
1.94455e-05
1.84082e-05
3.1632e-05
4.70178e-05
4.70268e-05
1.78597e-05
4.7016e-05
4.70251e-05
3.34443e-05
6.89608e-05
3.34461e-05
6.89602e-05
7.11803e-05
7.11841e-05
3.34471e-05
6.89659e-05
3.34487e-05
6.89651e-05
1.88863e-05
1.88851e-05
1.8886e-05
1.88845e-05
1.88858e-05
1.88844e-05
1.88857e-05
1.94466e-05
3.16389e-05
1.84073e-05
1.81936e-05
1.94481e-05
3.16302e-05
1.84079e-05
7.11759e-05
7.11798e-05
1.94469e-05
1.84075e-05
3.16407e-05
1.81933e-05
1.94485e-05
1.8408e-05
3.16324e-05
4.70232e-05
4.70322e-05
1.78608e-05
4.70211e-05
4.70302e-05
3.34503e-05
6.89617e-05
3.34533e-05
6.89614e-05
7.11813e-05
7.11853e-05
3.34536e-05
6.89667e-05
3.3456e-05
6.89663e-05
1.88864e-05
1.88851e-05
1.88863e-05
1.88852e-05
1.88862e-05
1.88851e-05
1.88859e-05
1.94491e-05
3.16402e-05
1.84077e-05
1.81942e-05
1.94508e-05
3.16322e-05
1.84088e-05
7.11765e-05
7.11807e-05
1.94494e-05
1.84076e-05
3.16422e-05
1.81931e-05
1.94513e-05
1.84086e-05
3.16345e-05
4.7028e-05
4.7037e-05
1.78619e-05
4.70256e-05
4.70348e-05
3.34538e-05
6.89632e-05
3.34574e-05
6.8963e-05
7.11827e-05
7.11869e-05
3.34579e-05
6.89693e-05
3.34609e-05
6.89694e-05
1.88869e-05
1.88857e-05
1.88865e-05
1.88844e-05
1.88862e-05
1.88842e-05
1.88859e-05
1.9451e-05
3.16427e-05
1.84085e-05
1.8195e-05
1.94529e-05
3.16347e-05
1.84094e-05
7.11778e-05
7.11822e-05
1.94513e-05
1.84081e-05
3.1645e-05
1.81934e-05
1.94534e-05
1.8408e-05
3.16375e-05
4.70321e-05
4.70412e-05
1.78628e-05
4.70293e-05
4.70385e-05
3.34568e-05
6.89652e-05
3.34605e-05
6.89652e-05
7.11846e-05
7.11889e-05
3.34613e-05
6.8972e-05
3.34646e-05
6.89716e-05
1.8886e-05
1.88838e-05
1.88865e-05
1.88827e-05
1.8885e-05
1.8882e-05
1.8886e-05
1.94527e-05
3.16451e-05
1.84083e-05
1.81943e-05
1.94547e-05
3.1637e-05
1.84081e-05
7.11795e-05
7.1184e-05
1.9453e-05
1.84068e-05
3.16477e-05
1.81921e-05
1.94551e-05
1.84066e-05
3.164e-05
4.70353e-05
4.70444e-05
1.78636e-05
4.7032e-05
4.70413e-05
3.34588e-05
6.89672e-05
3.3463e-05
6.89669e-05
7.11865e-05
7.11905e-05
3.34632e-05
6.89734e-05
3.34671e-05
6.89727e-05
1.8885e-05
1.88818e-05
1.88859e-05
1.88819e-05
1.8884e-05
1.88809e-05
1.88845e-05
1.94538e-05
3.16469e-05
1.8407e-05
1.8193e-05
1.94561e-05
3.16384e-05
1.84069e-05
7.11815e-05
7.11859e-05
1.94543e-05
1.84055e-05
3.16497e-05
1.81912e-05
1.94565e-05
1.84054e-05
3.16416e-05
4.70374e-05
4.70467e-05
1.78643e-05
4.70335e-05
4.7043e-05
3.34592e-05
6.89685e-05
3.34641e-05
6.8968e-05
7.11878e-05
7.11916e-05
3.34636e-05
6.89742e-05
3.34681e-05
6.89734e-05
1.88839e-05
1.88818e-05
1.88843e-05
1.88809e-05
1.8882e-05
1.88803e-05
1.88821e-05
1.94537e-05
3.16477e-05
1.84058e-05
1.81919e-05
1.94566e-05
3.16388e-05
1.84056e-05
7.11831e-05
7.11873e-05
1.94545e-05
1.84048e-05
3.16506e-05
1.81907e-05
1.94573e-05
1.84047e-05
3.1642e-05
4.70374e-05
4.70472e-05
1.78638e-05
4.70329e-05
4.70428e-05
3.34579e-05
6.89695e-05
3.34635e-05
6.8969e-05
7.11882e-05
7.11917e-05
3.34624e-05
6.8975e-05
3.34676e-05
6.89744e-05
1.88814e-05
1.88799e-05
1.88815e-05
1.88788e-05
1.88789e-05
1.8878e-05
1.88788e-05
1.94515e-05
3.16473e-05
1.84039e-05
1.819e-05
1.94552e-05
3.16378e-05
1.84036e-05
7.1184e-05
7.11879e-05
1.94527e-05
1.84035e-05
3.16504e-05
1.81894e-05
1.94564e-05
1.84032e-05
3.16413e-05
4.70365e-05
4.70466e-05
1.78611e-05
4.70321e-05
4.70422e-05
3.34567e-05
6.89703e-05
3.34621e-05
6.89694e-05
7.11876e-05
7.11905e-05
3.34611e-05
6.89759e-05
3.34663e-05
6.89748e-05
1.88786e-05
1.88778e-05
1.88786e-05
1.88772e-05
1.88761e-05
1.88762e-05
1.88761e-05
1.94469e-05
3.16454e-05
1.84017e-05
1.81871e-05
1.94515e-05
3.16354e-05
1.84014e-05
7.11837e-05
7.11868e-05
1.94483e-05
1.84016e-05
3.16489e-05
1.81872e-05
1.94529e-05
1.84014e-05
3.16394e-05
4.70364e-05
4.7046e-05
1.78555e-05
4.70322e-05
4.70418e-05
3.34536e-05
6.89695e-05
3.346e-05
6.89681e-05
7.11858e-05
7.11889e-05
3.34578e-05
6.8975e-05
3.3464e-05
6.89735e-05
1.88731e-05
1.88751e-05
1.88731e-05
1.88662e-05
1.88654e-05
1.88656e-05
1.88649e-05
1.94402e-05
3.16423e-05
1.83946e-05
1.81773e-05
1.94455e-05
3.16322e-05
1.83922e-05
7.11818e-05
7.11849e-05
1.94419e-05
1.83976e-05
3.16463e-05
1.81796e-05
1.94472e-05
1.83948e-05
3.16365e-05
4.70362e-05
4.70459e-05
1.78464e-05
4.70319e-05
4.70415e-05
3.34502e-05
6.8968e-05
3.34563e-05
6.89666e-05
7.11847e-05
7.1188e-05
3.34546e-05
6.89736e-05
3.34603e-05
6.89721e-05
1.8866e-05
1.88658e-05
1.88654e-05
1.88667e-05
1.8866e-05
1.88655e-05
1.88654e-05
1.94361e-05
3.16396e-05
1.83893e-05
1.81764e-05
1.94398e-05
3.163e-05
1.83903e-05
7.11804e-05
7.11838e-05
1.94366e-05
1.83891e-05
3.16436e-05
1.81759e-05
1.94408e-05
1.83899e-05
3.16343e-05
4.70357e-05
4.70453e-05
1.78435e-05
4.70313e-05
4.7041e-05
3.34483e-05
6.89668e-05
3.34537e-05
6.89657e-05
7.11842e-05
7.11877e-05
3.34529e-05
6.89725e-05
3.3458e-05
6.89713e-05
1.88672e-05
1.88667e-05
1.88666e-05
1.88679e-05
1.88673e-05
1.88668e-05
1.88667e-05
1.94356e-05
3.16383e-05
1.83903e-05
1.81773e-05
1.94382e-05
3.16291e-05
1.83913e-05
7.11797e-05
7.11834e-05
1.94353e-05
1.839e-05
3.16422e-05
1.81769e-05
1.94382e-05
1.83909e-05
3.16333e-05
4.70351e-05
4.70448e-05
1.78449e-05
4.70307e-05
4.70405e-05
3.34478e-05
6.89665e-05
3.34528e-05
6.89656e-05
7.11841e-05
7.11876e-05
3.34525e-05
6.89722e-05
3.34571e-05
6.89712e-05
1.88685e-05
1.8868e-05
1.88679e-05
1.8869e-05
1.88686e-05
1.88681e-05
1.8868e-05
1.94365e-05
3.1638e-05
1.83913e-05
1.81782e-05
1.94388e-05
3.1629e-05
1.83923e-05
7.11796e-05
7.11834e-05
1.94358e-05
1.8391e-05
3.16417e-05
1.81779e-05
1.94383e-05
1.8392e-05
3.16329e-05
4.70347e-05
4.70444e-05
1.78461e-05
4.70303e-05
4.70401e-05
3.34479e-05
6.89665e-05
3.34527e-05
6.89656e-05
7.1184e-05
7.11875e-05
3.34525e-05
6.89722e-05
3.3457e-05
6.89712e-05
1.88698e-05
1.88693e-05
1.88692e-05
1.88697e-05
1.88699e-05
1.88693e-05
1.88693e-05
1.94368e-05
3.16379e-05
1.83919e-05
1.81781e-05
1.94394e-05
3.1629e-05
1.83925e-05
7.11796e-05
7.11834e-05
1.94361e-05
1.83918e-05
3.16414e-05
1.8178e-05
1.94387e-05
1.83923e-05
3.16327e-05
4.70345e-05
4.70442e-05
1.78471e-05
4.70302e-05
4.70399e-05
3.3448e-05
6.89665e-05
3.34528e-05
6.89657e-05
7.1184e-05
7.11875e-05
3.34525e-05
6.89722e-05
3.34571e-05
6.89712e-05
1.88709e-05
1.88705e-05
1.88704e-05
1.88699e-05
1.88703e-05
1.88701e-05
1.88702e-05
1.94368e-05
3.16379e-05
1.83921e-05
1.81782e-05
1.94395e-05
3.1629e-05
1.83927e-05
7.11796e-05
7.11835e-05
1.9436e-05
1.8392e-05
3.16412e-05
1.81781e-05
1.94388e-05
1.83926e-05
3.16325e-05
4.70345e-05
4.70441e-05
1.78471e-05
4.70302e-05
4.70399e-05
3.3448e-05
6.89665e-05
3.34529e-05
6.8966e-05
7.1184e-05
7.11879e-05
3.34526e-05
6.89722e-05
3.34571e-05
6.89717e-05
1.8871e-05
1.88707e-05
1.88708e-05
1.88698e-05
1.88705e-05
1.88703e-05
1.88704e-05
1.94367e-05
3.16379e-05
1.83922e-05
1.81782e-05
1.94395e-05
3.16289e-05
1.83928e-05
7.11797e-05
7.11838e-05
1.94358e-05
1.8392e-05
3.16411e-05
1.81781e-05
1.94386e-05
1.83927e-05
3.16323e-05
4.70346e-05
4.70443e-05
1.78472e-05
4.70304e-05
4.70401e-05
3.34479e-05
6.89667e-05
3.34531e-05
6.89663e-05
7.11839e-05
7.11886e-05
3.34524e-05
6.89728e-05
3.34573e-05
6.89725e-05
1.8871e-05
1.88708e-05
1.88709e-05
1.88697e-05
1.88705e-05
1.88702e-05
1.88703e-05
1.94366e-05
3.1638e-05
1.83921e-05
1.81782e-05
1.94395e-05
3.16287e-05
1.83927e-05
7.11796e-05
7.11845e-05
1.94357e-05
1.8392e-05
3.16411e-05
1.81781e-05
1.94386e-05
1.83926e-05
3.16321e-05
4.70353e-05
4.70449e-05
1.7847e-05
4.70309e-05
4.70405e-05
3.34477e-05
6.89669e-05
3.34532e-05
6.89669e-05
7.11837e-05
7.11895e-05
3.34522e-05
6.89733e-05
3.34575e-05
6.89733e-05
1.8871e-05
1.88708e-05
1.88709e-05
1.88697e-05
1.88705e-05
1.88702e-05
1.88704e-05
1.94366e-05
3.16382e-05
1.83921e-05
1.81782e-05
1.94396e-05
3.16287e-05
1.83927e-05
7.11794e-05
7.11855e-05
1.94355e-05
1.8392e-05
3.16412e-05
1.81781e-05
1.94386e-05
1.83926e-05
3.1632e-05
4.70354e-05
4.7045e-05
1.7847e-05
4.70309e-05
4.70405e-05
3.34475e-05
6.89674e-05
3.34535e-05
6.89679e-05
7.11836e-05
7.11906e-05
3.3452e-05
6.89738e-05
3.34576e-05
6.89743e-05
1.8871e-05
1.88708e-05
1.88709e-05
1.88698e-05
1.88705e-05
1.88702e-05
1.88703e-05
1.94365e-05
3.16382e-05
1.83922e-05
1.81783e-05
1.94397e-05
3.16285e-05
1.83927e-05
7.11794e-05
7.11866e-05
1.94353e-05
1.8392e-05
3.16412e-05
1.81782e-05
1.94386e-05
1.83926e-05
3.16317e-05
4.70355e-05
4.7045e-05
1.7847e-05
4.70309e-05
4.70405e-05
3.34472e-05
6.89681e-05
3.34535e-05
6.89696e-05
7.11835e-05
7.11927e-05
3.34517e-05
6.89746e-05
3.34576e-05
6.8976e-05
1.8871e-05
1.88708e-05
1.88709e-05
1.88698e-05
1.88705e-05
1.88702e-05
1.88703e-05
1.94364e-05
3.16382e-05
1.83922e-05
1.81783e-05
1.94398e-05
3.1628e-05
1.83927e-05
7.11794e-05
7.11889e-05
1.94351e-05
1.8392e-05
3.16411e-05
1.81782e-05
1.94386e-05
1.83926e-05
3.16311e-05
4.70365e-05
4.7046e-05
1.78469e-05
4.70317e-05
4.70413e-05
3.34469e-05
6.89696e-05
3.34534e-05
6.89728e-05
7.11833e-05
7.11962e-05
3.34513e-05
6.8976e-05
3.34576e-05
6.8979e-05
1.8871e-05
1.88708e-05
1.88709e-05
1.88697e-05
1.88705e-05
1.88702e-05
1.88703e-05
1.94361e-05
3.16384e-05
1.83923e-05
1.81784e-05
1.94399e-05
3.16274e-05
1.83928e-05
7.11793e-05
7.11928e-05
1.94347e-05
1.83921e-05
3.16412e-05
1.81783e-05
1.94386e-05
1.83926e-05
3.16304e-05
4.70397e-05
4.70492e-05
1.78469e-05
4.70339e-05
4.70435e-05
3.34466e-05
6.89722e-05
3.34531e-05
6.89782e-05
7.11814e-05
7.11993e-05
3.3451e-05
6.89785e-05
3.34572e-05
6.89843e-05
1.8871e-05
1.88708e-05
1.88709e-05
1.88698e-05
1.88705e-05
1.88702e-05
1.88703e-05
1.94356e-05
3.16391e-05
1.83924e-05
1.81786e-05
1.944e-05
3.16265e-05
1.83931e-05
7.11786e-05
7.1197e-05
1.94343e-05
1.83922e-05
3.16418e-05
1.81784e-05
1.94387e-05
1.83928e-05
3.16293e-05
4.70444e-05
4.70539e-05
1.7847e-05
4.70347e-05
4.70443e-05
3.34466e-05
6.89765e-05
3.34525e-05
6.89869e-05
7.11766e-05
7.12018e-05
3.3451e-05
6.89824e-05
3.34566e-05
6.89926e-05
1.8871e-05
1.88708e-05
1.88709e-05
1.88699e-05
1.88705e-05
1.88702e-05
1.88703e-05
1.9435e-05
3.16405e-05
1.83926e-05
1.81789e-05
1.94403e-05
3.16246e-05
1.83932e-05
7.11746e-05
7.12003e-05
1.94336e-05
1.83924e-05
3.16429e-05
1.81788e-05
1.94389e-05
1.83933e-05
3.16271e-05
4.70465e-05
4.7056e-05
1.78469e-05
4.70304e-05
4.70401e-05
3.34473e-05
6.89805e-05
3.34518e-05
6.89937e-05
7.11683e-05
7.12037e-05
3.34516e-05
6.89864e-05
3.34558e-05
6.89997e-05
1.88711e-05
1.88708e-05
1.88708e-05
1.887e-05
1.88705e-05
1.88702e-05
1.88702e-05
1.94342e-05
3.1643e-05
1.83929e-05
1.81793e-05
1.9441e-05
3.16233e-05
1.83936e-05
7.1167e-05
7.12028e-05
1.94328e-05
1.83927e-05
3.16456e-05
1.81792e-05
1.94396e-05
1.83934e-05
3.16261e-05
4.70436e-05
4.70531e-05
1.78468e-05
4.70186e-05
4.70281e-05
3.34505e-05
6.89718e-05
3.34513e-05
6.89895e-05
7.11544e-05
7.12035e-05
3.34547e-05
6.89779e-05
3.34553e-05
6.89956e-05
1.88711e-05
1.88708e-05
1.88708e-05
1.88703e-05
1.88704e-05
1.88702e-05
1.88701e-05
1.94329e-05
3.16534e-05
1.83934e-05
1.81798e-05
1.94422e-05
3.16249e-05
1.83942e-05
7.1154e-05
7.12034e-05
1.94316e-05
1.83932e-05
3.16557e-05
1.81796e-05
1.94409e-05
1.83939e-05
3.16273e-05
4.70355e-05
4.70448e-05
1.78468e-05
4.6998e-05
4.70073e-05
3.3453e-05
6.89437e-05
3.34505e-05
6.89722e-05
7.1133e-05
7.11985e-05
3.34577e-05
6.89493e-05
3.34545e-05
6.89776e-05
1.88711e-05
1.88709e-05
1.88708e-05
1.8871e-05
1.88709e-05
1.88707e-05
1.88706e-05
1.94304e-05
3.1672e-05
1.83938e-05
1.81802e-05
1.94447e-05
3.16257e-05
1.83944e-05
7.11335e-05
7.1199e-05
1.94294e-05
1.83936e-05
3.16738e-05
1.818e-05
1.94436e-05
1.83942e-05
3.16273e-05
4.70212e-05
4.70302e-05
1.7847e-05
4.69679e-05
4.69769e-05
3.34299e-05
6.88861e-05
3.34367e-05
6.89319e-05
7.11027e-05
7.11815e-05
3.34338e-05
6.88911e-05
3.34407e-05
6.89367e-05
1.88731e-05
1.88728e-05
1.88727e-05
1.88846e-05
1.88853e-05
1.88851e-05
1.8885e-05
1.94141e-05
3.17005e-05
1.83955e-05
1.81809e-05
1.94464e-05
3.1585e-05
1.83953e-05
7.11034e-05
7.11821e-05
1.94131e-05
1.83953e-05
3.17015e-05
1.81808e-05
1.94455e-05
1.83952e-05
3.15855e-05
4.69956e-05
4.70045e-05
1.7847e-05
4.69003e-05
4.69091e-05
2.80942e-05
6.66569e-05
3.29864e-05
6.73203e-05
6.99034e-05
5.49006e-05
2.80975e-05
6.66606e-05
3.29897e-05
6.73248e-05
1.95875e-05
1.92611e-05
1.92614e-05
1.88226e-05
1.95736e-05
1.92166e-05
1.92169e-05
1.91775e-05
3.0721e-05
1.84376e-05
1.81759e-05
1.93452e-05
3.43689e-05
1.85208e-05
6.99035e-05
5.49021e-05
1.91766e-05
1.84375e-05
3.0721e-05
1.81759e-05
1.93444e-05
1.85207e-05
3.43687e-05
4.65057e-05
4.65131e-05
1.79028e-05
4.28153e-05
4.28193e-05
7.11853e-05
7.11856e-05
4.70024e-05
4.70142e-05
6.89641e-05
3.34221e-05
6.89734e-05
6.89758e-05
3.34248e-05
3.16236e-05
1.8407e-05
1.94338e-05
1.81902e-05
3.16256e-05
1.84071e-05
3.16347e-05
1.94346e-05
7.11874e-05
7.11844e-05
1.78548e-05
4.70185e-05
4.70012e-05
4.7016e-05
4.69988e-05
7.11829e-05
7.11799e-05
6.89706e-05
3.34266e-05
3.16274e-05
1.84067e-05
1.94354e-05
6.89654e-05
3.34266e-05
1.84064e-05
3.16262e-05
1.94354e-05
1.94376e-05
1.81902e-05
3.16212e-05
1.84065e-05
3.16264e-05
1.84064e-05
1.94365e-05
3.34259e-05
6.89704e-05
6.89731e-05
3.34277e-05
1.94373e-05
1.81903e-05
1.84068e-05
3.16217e-05
1.84068e-05
3.16304e-05
1.94362e-05
3.34254e-05
6.89686e-05
6.8971e-05
3.34273e-05
7.11831e-05
4.70047e-05
4.70041e-05
7.11857e-05
1.84062e-05
3.16248e-05
1.94356e-05
1.81909e-05
1.8407e-05
3.16236e-05
3.16323e-05
1.9435e-05
6.89694e-05
3.34255e-05
6.89703e-05
6.89726e-05
3.34262e-05
1.78555e-05
4.7003e-05
4.70123e-05
4.7e-05
4.70094e-05
7.11852e-05
7.11823e-05
7.11853e-05
7.11824e-05
7.11821e-05
7.11843e-05
7.11823e-05
7.11846e-05
4.70032e-05
4.70149e-05
1.78559e-05
4.70044e-05
4.70158e-05
7.11832e-05
7.11812e-05
7.11836e-05
7.11815e-05
1.78558e-05
4.70075e-05
4.70188e-05
4.70043e-05
4.7016e-05
3.34287e-05
6.89737e-05
3.34279e-05
6.89718e-05
1.94359e-05
3.1631e-05
1.8407e-05
1.81903e-05
1.94368e-05
3.16274e-05
1.84069e-05
1.94368e-05
3.16317e-05
1.84071e-05
1.81908e-05
1.94376e-05
3.16277e-05
1.84071e-05
3.34258e-05
6.89612e-05
6.89627e-05
3.34271e-05
3.34299e-05
6.89706e-05
6.89721e-05
3.3431e-05
1.94387e-05
1.81903e-05
3.16297e-05
1.84064e-05
3.16336e-05
1.84065e-05
1.94376e-05
1.94395e-05
1.81908e-05
3.16304e-05
1.84067e-05
3.1634e-05
1.84067e-05
1.94385e-05
4.70186e-05
4.70016e-05
1.78563e-05
4.70213e-05
4.70045e-05
7.11798e-05
7.11822e-05
7.11851e-05
7.11831e-05
1.78561e-05
4.70246e-05
4.70085e-05
4.70212e-05
4.70045e-05
7.11812e-05
7.1179e-05
1.94376e-05
3.16354e-05
1.84067e-05
1.81909e-05
1.94383e-05
3.1633e-05
1.84066e-05
3.34306e-05
6.89658e-05
3.34294e-05
6.89634e-05
1.94376e-05
1.84064e-05
3.16347e-05
1.819e-05
1.94383e-05
1.84063e-05
3.16335e-05
3.34299e-05
6.89669e-05
6.89689e-05
3.34315e-05
1.94403e-05
1.81909e-05
3.16366e-05
1.84062e-05
3.164e-05
1.84062e-05
1.94393e-05
3.34315e-05
6.89621e-05
6.89639e-05
3.34328e-05
1.94403e-05
1.819e-05
1.84059e-05
3.1636e-05
1.84059e-05
3.16405e-05
1.94394e-05
3.34305e-05
6.89709e-05
3.3429e-05
6.89687e-05
1.94378e-05
1.84079e-05
3.16279e-05
1.81909e-05
1.94389e-05
1.84079e-05
3.16241e-05
3.34301e-05
6.89689e-05
3.34287e-05
6.89669e-05
1.94408e-05
1.81913e-05
3.1635e-05
1.84072e-05
3.16392e-05
1.84075e-05
1.94398e-05
3.34318e-05
6.89677e-05
6.89693e-05
3.34332e-05
1.94405e-05
1.81909e-05
1.84075e-05
3.16269e-05
1.84076e-05
3.16304e-05
1.94393e-05
3.34314e-05
6.89658e-05
6.89673e-05
3.34328e-05
4.70062e-05
4.70049e-05
1.78554e-05
4.70075e-05
4.70059e-05
7.11824e-05
7.11847e-05
7.11815e-05
7.1179e-05
1.78553e-05
4.7011e-05
4.7009e-05
4.70075e-05
4.70061e-05
7.11836e-05
7.11817e-05
1.94372e-05
1.8407e-05
3.16299e-05
1.81915e-05
1.94379e-05
1.8407e-05
3.16262e-05
3.34293e-05
6.89697e-05
3.34286e-05
6.89675e-05
3.34301e-05
6.89706e-05
3.3429e-05
6.89687e-05
1.94406e-05
1.8191e-05
1.84068e-05
3.16303e-05
1.84068e-05
3.1634e-05
1.94396e-05
1.94399e-05
1.81915e-05
1.84067e-05
3.1629e-05
1.84067e-05
3.16325e-05
1.94389e-05
3.34305e-05
6.89662e-05
6.89678e-05
3.34314e-05
3.34311e-05
6.89677e-05
6.89691e-05
3.34324e-05
7.11822e-05
7.11841e-05
7.11823e-05
7.11842e-05
1.7857e-05
4.70081e-05
4.70173e-05
4.70043e-05
4.70137e-05
7.11827e-05
7.1181e-05
7.11828e-05
7.11811e-05
7.118e-05
7.1182e-05
7.11804e-05
7.11825e-05
4.70078e-05
4.70189e-05
1.78572e-05
4.70109e-05
4.70222e-05
7.11813e-05
7.1179e-05
7.11818e-05
7.11794e-05
1.78571e-05
4.70142e-05
4.70254e-05
4.70109e-05
4.70223e-05
3.34335e-05
6.89711e-05
3.34322e-05
6.89699e-05
1.94391e-05
3.16358e-05
1.8407e-05
1.81913e-05
1.94403e-05
3.16311e-05
1.8407e-05
1.944e-05
3.16367e-05
1.84075e-05
1.81918e-05
1.94412e-05
3.1633e-05
1.84074e-05
3.34311e-05
6.89599e-05
6.89609e-05
3.34327e-05
3.34348e-05
6.89698e-05
6.89705e-05
3.34362e-05
1.94418e-05
1.81912e-05
3.16316e-05
1.84068e-05
3.16369e-05
1.84068e-05
1.94405e-05
1.94427e-05
1.81918e-05
3.1635e-05
1.84072e-05
3.16393e-05
1.84072e-05
1.94415e-05
4.70247e-05
4.70087e-05
1.78577e-05
4.70281e-05
4.70121e-05
7.1178e-05
7.11805e-05
7.11837e-05
7.11812e-05
1.78575e-05
4.70315e-05
4.70157e-05
4.70285e-05
4.70122e-05
7.11801e-05
7.11774e-05
1.94408e-05
3.16428e-05
1.84069e-05
1.81918e-05
1.9442e-05
3.16366e-05
1.84068e-05
3.34353e-05
6.89628e-05
3.34338e-05
6.89612e-05
1.94409e-05
1.84066e-05
3.16418e-05
1.81909e-05
1.9442e-05
1.84066e-05
3.1635e-05
3.34351e-05
6.89653e-05
6.89666e-05
3.34369e-05
1.94434e-05
1.81917e-05
3.16351e-05
1.84065e-05
3.16421e-05
1.84066e-05
1.94421e-05
3.34363e-05
6.89607e-05
6.89619e-05
3.34379e-05
1.94435e-05
1.81906e-05
1.84062e-05
3.16333e-05
1.84062e-05
3.16405e-05
1.94422e-05
3.34358e-05
6.89683e-05
3.34344e-05
6.89671e-05
1.94407e-05
1.84082e-05
3.16332e-05
1.8192e-05
1.94419e-05
1.84082e-05
3.16295e-05
3.34354e-05
6.89663e-05
3.34341e-05
6.89651e-05
1.94438e-05
1.81923e-05
3.16327e-05
1.84073e-05
3.16399e-05
1.84077e-05
1.94425e-05
3.34371e-05
6.8967e-05
6.89678e-05
3.34384e-05
1.94433e-05
1.8192e-05
1.84074e-05
3.16312e-05
1.84078e-05
3.16356e-05
1.94421e-05
3.34367e-05
6.8965e-05
6.89658e-05
3.3438e-05
4.70112e-05
4.70089e-05
1.78569e-05
4.70144e-05
4.70126e-05
7.11806e-05
7.11827e-05
7.118e-05
7.11774e-05
1.78567e-05
4.7018e-05
4.7016e-05
4.70147e-05
4.70128e-05
7.11819e-05
7.11797e-05
1.94406e-05
1.84077e-05
3.16353e-05
1.81926e-05
1.94416e-05
1.84076e-05
3.16314e-05
3.34338e-05
6.89666e-05
3.34327e-05
6.89652e-05
3.34349e-05
6.89682e-05
3.34334e-05
6.8967e-05
1.94438e-05
1.81921e-05
1.84075e-05
3.16321e-05
1.84078e-05
3.16375e-05
1.94425e-05
1.94432e-05
1.81926e-05
1.84073e-05
3.1633e-05
1.84073e-05
3.16376e-05
1.9442e-05
3.34351e-05
6.89647e-05
6.89657e-05
3.34362e-05
3.34359e-05
6.89669e-05
6.89676e-05
3.34375e-05
7.11797e-05
7.11818e-05
7.11798e-05
7.11819e-05
1.78585e-05
4.70142e-05
4.70232e-05
4.70106e-05
4.70195e-05
7.11813e-05
7.11789e-05
7.11814e-05
7.1179e-05
7.11783e-05
7.11809e-05
7.11788e-05
7.11814e-05
4.70143e-05
4.70257e-05
1.78583e-05
4.70175e-05
4.70288e-05
7.1181e-05
7.11781e-05
7.11813e-05
7.11784e-05
1.78582e-05
4.70205e-05
4.70319e-05
4.70177e-05
4.70287e-05
3.34395e-05
6.89704e-05
3.34376e-05
6.89696e-05
1.94421e-05
3.16372e-05
1.84074e-05
1.81918e-05
1.94432e-05
3.16316e-05
1.84074e-05
1.9443e-05
3.16409e-05
1.84077e-05
1.81929e-05
1.94442e-05
3.16359e-05
1.84077e-05