/*--------------------------------*- C++ -*----------------------------------*\
| =========                 |                                                 |
| \\      /  F ield         | OpenFOAM: The Open Source CFD Toolbox           |
|  \\    /   O peration     | Version:  v1912                                 |
|   \\  /    A nd           | Website:  www.openfoam.com                      |
|    \\/     M anipulation  |                                                 |
\*---------------------------------------------------------------------------*/
FoamFile
{
    version     2.0;
    format      ascii;
    class       volScalarField;
    location    "60";
    object      nut;
}
// * * * * * * * * * * * * * * * * * * * * * * * * * * * * * * * * * * * * * //

dimensions      [0 2 -1 0 0 0 0];


internalField   nonuniform List<scalar> 
57062
(
0.000186014
0.000141469
0.000141466
0.000112078
0.000186014
0.000141475
0.000141468
0.000112084
0.000186014
0.000141479
0.000141472
0.000112088
0.000185998
0.000141476
0.000141472
0.000112088
0.000186003
0.000141472
0.000141455
0.000112086
0.000186005
0.000141472
0.000141451
0.000112083
0.000185988
0.000141466
0.000141429
0.000112078
0.000185964
0.000141438
0.000141406
0.000112075
0.000185962
0.000141433
0.000141408
0.000112063
0.000185959
0.000141419
0.0001414
0.000112043
0.000185944
0.000141399
0.000141384
0.000112005
0.000185914
0.000141325
0.000141342
0.000111956
0.000185846
0.000141332
0.000141312
0.00011194
0.000185878
0.000141352
0.000141336
0.000111965
0.000185895
0.000141364
0.00014135
0.000111975
0.000185917
0.000141368
0.000141357
0.000111985
0.000185927
0.00014137
0.000141358
0.000111986
0.00018593
0.000141371
0.000141359
0.000111988
0.000185929
0.000141371
0.000141359
0.000111986
0.000185927
0.000141371
0.000141359
0.000111986
0.000185928
0.000141372
0.00014136
0.000111986
0.000185928
0.000141374
0.000141362
0.000111985
0.000185928
0.000141377
0.000141365
0.000111987
0.000185928
0.000141381
0.000141368
0.000111988
0.000185929
0.000141388
0.000141376
0.000111989
0.00018593
0.000141398
0.000141387
0.000111991
0.000185932
0.000141418
0.000141405
0.000111996
0.000185937
0.000141445
0.000141432
0.000112006
0.000185985
0.000141457
0.000141445
0.00011203
0.000187991
0.000144832
0.000144828
0.000115829
0.000112258
0.000141444
0.000141437
0.000112266
0.000141469
0.000141442
0.000141469
0.000141447
0.000112257
0.000141467
0.000141471
0.000112265
0.000112077
0.000112255
0.000141444
0.000141442
0.000141439
0.000141439
0.000112089
0.000112273
0.000141469
0.00014144
0.000141466
0.000141437
0.000141451
0.000141475
0.000141449
0.000112076
0.000112257
0.000141475
0.000141469
0.000141473
0.000112271
0.000112079
0.00011226
0.000141447
0.000141447
0.000141445
0.000141444
0.000112096
0.000112277
0.000141472
0.000141442
0.000141466
0.000141432
0.000141457
0.000141479
0.000141455
0.000112081
0.00011226
0.000141482
0.000141473
0.000141479
0.000112275
0.000112084
0.000112262
0.000141447
0.000141452
0.000141441
0.000141445
0.0001121
0.000112278
0.000141467
0.000141434
0.000141461
0.000141426
0.00014146
0.000141478
0.000141451
0.000112084
0.000112264
0.000141484
0.000141474
0.000141476
0.000112275
0.000112084
0.000112262
0.000141444
0.000141446
0.000141438
0.000141441
0.000112101
0.000112279
0.000141461
0.000141427
0.000141459
0.000141421
0.000141452
0.000141474
0.000141446
0.000112086
0.00011226
0.000141478
0.000141459
0.000141471
0.000112274
0.000112086
0.000112261
0.00014144
0.000141445
0.000141437
0.000141437
0.000112102
0.000112278
0.000141465
0.000141426
0.00014146
0.00014142
0.000141449
0.000141474
0.000141443
0.000112083
0.000112256
0.000141474
0.000141453
0.000141466
0.000112271
0.000112085
0.000112259
0.000141441
0.000141442
0.000141436
0.000141435
0.0001121
0.000112273
0.000141463
0.000141425
0.000141453
0.000141406
0.000141446
0.000141471
0.000141439
0.000112079
0.000112249
0.000141468
0.000141435
0.000141459
0.000112266
0.000112081
0.000112247
0.000141428
0.000141435
0.000141407
0.000141419
0.000112095
0.000112264
0.000141452
0.000141403
0.000141439
0.000141392
0.000141443
0.000141442
0.000141437
0.000112073
0.000112235
0.000141461
0.000141408
0.000141455
0.000112263
0.000112071
0.000112236
0.000141405
0.000141409
0.000141402
0.000141392
0.000112087
0.000112244
0.000141429
0.000141382
0.000141411
0.000141367
0.000141429
0.000141433
0.000141414
0.000112059
0.000112223
0.00014145
0.000141407
0.000141436
0.000112251
0.000112059
0.000112222
0.000141403
0.000141391
0.000141395
0.000141383
0.000112066
0.000112227
0.000141412
0.000141378
0.000141416
0.000141384
0.000141413
0.000141425
0.000141403
0.000112047
0.000112212
0.000141433
0.000141403
0.000141422
0.000112234
0.000112045
0.000112203
0.000141391
0.000141382
0.000141368
0.000141357
0.000112048
0.000112203
0.000141417
0.00014138
0.000141399
0.00014135
0.0001414
0.000141401
0.000141372
0.000112035
0.000112191
0.000141421
0.000141386
0.000141395
0.000112201
0.000112021
0.000112172
0.000141366
0.000141354
0.00014135
0.000141328
0.00011202
0.000112167
0.000141396
0.000141346
0.000141379
0.00014133
0.000141368
0.000141362
0.000141333
0.00011201
0.000112161
0.000141392
0.00014137
0.000141365
0.000112156
0.000111983
0.00011213
0.000141328
0.000141299
0.000141278
0.000141268
0.000111975
0.000112134
0.000141356
0.000141311
0.000141303
0.000141256
0.000141301
0.000141324
0.000141278
0.000111972
0.000112119
0.000141333
0.000141299
0.000141298
0.000112125
0.000111951
0.00011215
0.000141296
0.000141284
0.000141309
0.000141294
0.000111958
0.000112159
0.000141319
0.000141272
0.000141332
0.000141284
0.000141293
0.000141351
0.000141302
0.000111941
0.000112142
0.000141314
0.000141334
0.000141324
0.00011215
0.000111975
0.000112161
0.000141322
0.000141305
0.000141325
0.000141308
0.000111983
0.000112166
0.000141344
0.000141296
0.000141348
0.000141298
0.000141312
0.000141363
0.000141315
0.000111967
0.000112149
0.000141335
0.000141349
0.000141338
0.000112161
0.000111985
0.000112173
0.000141334
0.000141317
0.000141338
0.000141322
0.000111991
0.000112174
0.000141357
0.000141308
0.000141362
0.000141312
0.000141324
0.000141368
0.00014133
0.000111973
0.000112163
0.000141347
0.000141359
0.000141352
0.000112171
0.000111996
0.000112172
0.000141348
0.000141333
0.000141345
0.000141332
0.000111998
0.000112174
0.00014137
0.000141323
0.000141367
0.000141323
0.000141342
0.00014137
0.000141344
0.000111987
0.000112161
0.000141365
0.000141359
0.000141365
0.000112173
0.000111997
0.000112173
0.00014135
0.000141337
0.000141348
0.000141335
0.000111998
0.000112175
0.000141372
0.000141327
0.00014137
0.000141326
0.000141347
0.000141371
0.000141345
0.000111986
0.000112163
0.00014137
0.000141359
0.000141368
0.000112174
0.000111997
0.000112172
0.000141351
0.000141339
0.000141347
0.000141336
0.000112
0.000112175
0.000141373
0.00014133
0.000141369
0.000141328
0.000141349
0.000141372
0.000141346
0.000111987
0.000112162
0.000141372
0.00014136
0.000141369
0.000112173
0.000111996
0.000112172
0.000141351
0.00014134
0.000141346
0.000141336
0.000112
0.000112175
0.000141373
0.000141332
0.000141368
0.000141328
0.000141349
0.000141372
0.000141345
0.000111987
0.000112163
0.000141372
0.00014136
0.000141368
0.000112172
0.000111996
0.000112171
0.00014135
0.000141339
0.000141347
0.000141336
0.000112
0.000112175
0.000141372
0.000141332
0.000141369
0.000141328
0.000141349
0.000141372
0.000141346
0.000111987
0.000112162
0.000141372
0.00014136
0.000141369
0.000112173
0.000111996
0.000112171
0.00014135
0.00014134
0.000141347
0.000141336
0.000112
0.000112175
0.000141373
0.000141332
0.000141369
0.000141328
0.00014135
0.000141374
0.000141346
0.000111987
0.000112162
0.000141372
0.000141362
0.000141368
0.000112172
0.000111997
0.00011217
0.000141351
0.00014134
0.000141348
0.000141337
0.000112
0.000112175
0.000141373
0.000141332
0.00014137
0.000141329
0.00014135
0.000141377
0.000141347
0.000111988
0.000112162
0.000141372
0.000141365
0.00014137
0.000112173
0.000111994
0.00011217
0.000141352
0.000141341
0.000141349
0.000141338
0.000111999
0.000112175
0.000141374
0.000141334
0.000141372
0.000141331
0.000141351
0.000141381
0.000141349
0.000111986
0.000112162
0.000141374
0.000141368
0.000141372
0.000112173
0.000111995
0.000112171
0.000141354
0.000141343
0.000141353
0.000141342
0.000112
0.000112176
0.000141376
0.000141336
0.000141376
0.000141335
0.000141353
0.000141387
0.000141352
0.000111987
0.000112163
0.000141376
0.000141375
0.000141375
0.000112174
0.000111997
0.000112173
0.000141359
0.000141347
0.000141361
0.000141349
0.000112002
0.000112179
0.000141381
0.00014134
0.000141383
0.000141341
0.000141358
0.000141396
0.000141359
0.000111989
0.000112165
0.00014138
0.000141385
0.000141382
0.000112175
0.000111999
0.000112179
0.000141367
0.000141356
0.000141372
0.000141361
0.000112004
0.000112186
0.000141389
0.000141348
0.000141395
0.000141353
0.000141365
0.000141418
0.000141371
0.000111991
0.000112173
0.000141388
0.000141405
0.000141393
0.00011218
0.000112006
0.000112189
0.00014138
0.000141368
0.000141392
0.000141381
0.000112012
0.000112196
0.000141402
0.000141361
0.000141415
0.000141373
0.000141378
0.000141444
0.000141391
0.000112
0.000112182
0.0001414
0.000141431
0.000141414
0.000112189
0.000112017
0.000112219
0.0001414
0.000141391
0.000141455
0.000141453
0.000112024
0.000112228
0.000141423
0.000141382
0.000141479
0.000141438
0.0001414
0.00014151
0.000141452
0.000112011
0.000112214
0.000141423
0.000141499
0.000141487
0.000112222
0.000112043
0.00011384
0.000141408
0.000141413
0.000143645
0.000143648
0.000112051
0.000113847
0.000141432
0.00014139
0.000143662
0.000143635
0.000141405
0.000143698
0.000143644
0.000112038
0.000113837
0.000141447
0.000143694
0.000143676
0.000113846
0.00011583
0.000144812
0.000144814
0.000115836
0.000144828
0.000144801
0.000187996
0.000187995
0.000187994
0.000144813
0.000115827
0.000144842
0.000186015
0.000186013
0.000186005
0.00018601
4.42206e-05
4.91736e-05
4.42172e-05
4.91729e-05
2.38868e-05
2.38873e-05
4.42295e-05
4.91711e-05
4.42263e-05
4.91702e-05
0.000186019
0.000186005
0.000186016
0.000186016
0.000186012
0.000186002
0.000186012
6.00964e-05
4.87388e-05
0.00016556
0.000141477
6.00785e-05
4.87585e-05
0.000165566
2.38841e-05
2.38846e-05
6.00944e-05
0.000165553
4.87444e-05
0.00014147
6.0076e-05
0.000165557
4.87504e-05
4.75898e-05
4.75897e-05
0.000112271
4.75915e-05
4.75916e-05
4.42294e-05
4.91726e-05
4.42249e-05
4.91722e-05
2.38864e-05
2.38869e-05
4.42384e-05
4.91699e-05
4.42339e-05
4.91693e-05
0.000186024
0.000186005
0.000186015
0.000186017
0.000186024
0.000186003
0.000186014
6.01006e-05
4.87601e-05
0.00016556
0.000141481
6.00829e-05
4.87598e-05
0.000165559
2.38838e-05
2.38844e-05
6.00979e-05
0.000165557
4.87522e-05
0.000141475
6.00802e-05
0.000165562
4.87554e-05
4.75965e-05
4.75963e-05
0.000112276
4.75987e-05
4.75986e-05
4.42408e-05
4.91723e-05
4.4235e-05
4.91719e-05
2.38862e-05
2.38868e-05
4.42485e-05
4.91694e-05
4.42437e-05
4.9169e-05
0.000186026
0.000186007
0.000186017
0.000185997
0.000186021
0.000186004
0.000186011
6.01047e-05
4.87509e-05
0.000165554
0.000141485
6.00869e-05
4.87503e-05
0.000165555
2.38836e-05
2.38842e-05
6.01016e-05
0.000165558
4.87521e-05
0.000141479
6.00835e-05
0.000165562
4.87538e-05
4.76035e-05
4.76031e-05
0.000112279
4.76055e-05
4.76051e-05
4.42549e-05
4.91723e-05
4.42488e-05
4.91721e-05
2.38862e-05
2.38869e-05
4.42611e-05
4.91693e-05
4.42555e-05
4.9169e-05
0.000186021
0.000186005
0.000186014
0.000186004
0.000186015
0.000185994
0.000186009
6.01098e-05
4.87456e-05
0.000165546
0.00014148
6.00917e-05
4.87482e-05
0.000165546
2.38836e-05
2.38842e-05
6.01072e-05
0.000165553
4.87508e-05
0.000141472
6.00886e-05
0.00016555
4.87535e-05
4.76098e-05
4.76093e-05
0.000112278
4.76114e-05
4.76111e-05
4.42649e-05
4.91726e-05
4.42608e-05
4.91725e-05
2.38864e-05
2.38871e-05
4.4272e-05
4.91696e-05
4.42676e-05
4.91694e-05
0.000186015
0.000185995
0.000186007
0.000186007
0.000186012
0.000185999
0.000186004
6.01144e-05
4.87476e-05
0.000165545
0.000141479
6.00966e-05
4.87517e-05
0.000165552
2.38837e-05
2.38844e-05
6.01121e-05
0.000165546
4.87528e-05
0.000141457
6.00939e-05
0.000165552
4.87569e-05
4.76156e-05
4.76153e-05
0.000112275
4.76169e-05
4.76169e-05
4.42712e-05
4.91732e-05
4.42681e-05
4.91731e-05
2.38867e-05
2.38874e-05
4.42793e-05
4.91705e-05
4.4276e-05
4.91705e-05
0.00018601
0.000185999
0.000186003
0.000185995
0.000185998
0.000185975
0.000185996
6.01182e-05
4.87519e-05
0.000165549
0.000141479
6.01006e-05
4.8756e-05
0.000165554
2.38839e-05
2.38846e-05
6.01158e-05
0.000165546
4.87575e-05
0.000141451
6.00981e-05
0.000165535
4.87618e-05
4.76207e-05
4.76207e-05
0.000112272
4.76216e-05
4.76216e-05
4.4276e-05
4.91738e-05
4.42734e-05
4.91738e-05
2.3887e-05
2.38877e-05
4.42848e-05
4.91715e-05
4.42821e-05
4.91713e-05
0.000185988
0.000185968
0.000185996
0.000185968
0.000185983
0.000185948
0.000186004
6.01213e-05
4.87558e-05
0.000165538
0.000141458
6.01042e-05
4.87596e-05
0.000165536
2.38842e-05
2.38849e-05
6.01181e-05
0.000165519
4.87621e-05
0.00014142
6.0101e-05
0.00016551
4.87657e-05
4.76249e-05
4.76249e-05
0.000112268
4.76252e-05
4.76253e-05
4.42794e-05
4.91746e-05
4.42774e-05
4.91745e-05
2.38873e-05
2.3888e-05
4.42881e-05
4.9172e-05
4.42865e-05
4.91717e-05
0.000185984
0.000185947
0.000186003
0.000185961
0.000185985
0.000185945
0.000185995
6.01229e-05
4.87588e-05
0.000165529
0.000141435
6.01062e-05
4.8762e-05
0.000165529
2.38845e-05
2.38853e-05
6.01198e-05
0.000165502
4.87649e-05
0.000141405
6.01032e-05
0.000165503
4.87681e-05
4.76278e-05
4.7628e-05
0.000112262
4.76273e-05
4.76276e-05
4.42804e-05
4.9175e-05
4.42796e-05
4.91748e-05
2.38875e-05
2.38881e-05
4.42893e-05
4.91722e-05
4.42886e-05
4.9172e-05
0.000185985
0.000185963
0.000185994
0.000185962
0.000185973
0.000185951
0.000185977
6.01209e-05
4.87601e-05
0.000165524
0.000141432
6.01062e-05
4.87625e-05
0.000165523
2.38848e-05
2.38855e-05
6.01194e-05
0.000165507
4.87665e-05
0.000141407
6.01041e-05
0.000165506
4.87689e-05
4.76278e-05
4.76288e-05
0.000112248
4.76266e-05
4.76276e-05
4.4278e-05
4.91754e-05
4.42788e-05
4.91752e-05
2.38876e-05
2.38882e-05
4.42874e-05
4.91725e-05
4.42883e-05
4.91723e-05
0.00018597
0.000185947
0.000185971
0.000185945
0.000185948
0.000185931
0.000185942
6.011e-05
4.87586e-05
0.000165508
0.000141416
6.00993e-05
4.87593e-05
0.000165504
2.38849e-05
2.38856e-05
6.01108e-05
0.000165498
4.87656e-05
0.000141398
6.00994e-05
0.000165495
4.87667e-05
4.76265e-05
4.7628e-05
0.000112223
4.76251e-05
4.76264e-05
4.42728e-05
4.91757e-05
4.4274e-05
4.91754e-05
2.38875e-05
2.3888e-05
4.42817e-05
4.91728e-05
4.42833e-05
4.91725e-05
0.000185946
0.000185929
0.000185939
0.000185939
0.000185922
0.000185915
0.000185913
6.00902e-05
4.87524e-05
0.000165488
0.000141396
6.00817e-05
4.8752e-05
0.000165485
2.38849e-05
2.38854e-05
6.00907e-05
0.000165481
4.87605e-05
0.000141382
6.00828e-05
0.00016548
4.87602e-05
4.76255e-05
4.76259e-05
0.000112187
4.76242e-05
4.76246e-05
4.42671e-05
4.91754e-05
4.42688e-05
4.91749e-05
2.38872e-05
2.38877e-05
4.42758e-05
4.91726e-05
4.42777e-05
4.9172e-05
0.000185883
0.000185901
0.000185874
0.000185827
0.000185832
0.000185819
0.000185821
6.00674e-05
4.87446e-05
0.00016541
0.000141314
6.00598e-05
4.87446e-05
0.000165389
2.38846e-05
2.38851e-05
6.00681e-05
0.000165445
4.87531e-05
0.000141317
6.00608e-05
0.000165411
4.8753e-05
4.76243e-05
4.76249e-05
0.000112136
4.7623e-05
4.76236e-05
4.42616e-05
4.91749e-05
4.42627e-05
4.91744e-05
2.3887e-05
2.38876e-05
4.42705e-05
4.9172e-05
4.42718e-05
4.91715e-05
0.000185845
0.000185834
0.000185835
0.000185876
0.000185858
0.000185846
0.000185845
6.0056e-05
4.87395e-05
0.000165409
0.000141346
6.0042e-05
4.87413e-05
0.000165424
2.38843e-05
2.38849e-05
6.00528e-05
0.000165397
4.87476e-05
0.000141325
6.00401e-05
0.00016541
4.8749e-05
4.76233e-05
4.76238e-05
0.000112142
4.76223e-05
4.76227e-05
4.42592e-05
4.91744e-05
4.42592e-05
4.91741e-05
2.38869e-05
2.38875e-05
4.42684e-05
4.91717e-05
4.42685e-05
4.91712e-05
0.00018587
0.000185858
0.000185855
0.000185892
0.000185878
0.000185864
0.000185865
6.00578e-05
4.87382e-05
0.00016543
0.000141362
6.00402e-05
4.87406e-05
0.000165438
2.38842e-05
2.38848e-05
6.00527e-05
0.000165423
4.8746e-05
0.000141346
6.00358e-05
0.000165431
4.87482e-05
4.76227e-05
4.76234e-05
0.000112159
4.76216e-05
4.76224e-05
4.42587e-05
4.91743e-05
4.42581e-05
4.9174e-05
2.38869e-05
2.38875e-05
4.42679e-05
4.91716e-05
4.42675e-05
4.91712e-05
0.000185893
0.000185879
0.00018588
0.000185916
0.000185899
0.000185886
0.000185886
6.00624e-05
4.87381e-05
0.000165446
0.000141374
6.00448e-05
4.87406e-05
0.000165458
2.38842e-05
2.38848e-05
6.00568e-05
0.000165439
4.87457e-05
0.000141359
6.00394e-05
0.000165451
4.8748e-05
4.76222e-05
4.7623e-05
0.00011217
4.76212e-05
4.76219e-05
4.42589e-05
4.91743e-05
4.42581e-05
4.9174e-05
2.38869e-05
2.38875e-05
4.4268e-05
4.91715e-05
4.42674e-05
4.91712e-05
0.000185914
0.000185901
0.000185901
0.000185928
0.00018592
0.000185907
0.000185907
6.0064e-05
4.87382e-05
0.000165456
0.000141374
6.00474e-05
4.87407e-05
0.000165461
2.38842e-05
2.38848e-05
6.00585e-05
0.000165452
4.87455e-05
0.000141361
6.00419e-05
0.000165456
4.87478e-05
4.76221e-05
4.76228e-05
0.000112177
4.76211e-05
4.76217e-05
4.42591e-05
4.91743e-05
4.42583e-05
4.91741e-05
2.38869e-05
2.38875e-05
4.42681e-05
4.91715e-05
4.42675e-05
4.91712e-05
0.000185932
0.000185921
0.000185922
0.000185931
0.000185927
0.000185919
0.000185923
6.0064e-05
4.87383e-05
0.000165461
0.000141375
6.00479e-05
4.87408e-05
0.000165464
2.38842e-05
2.38849e-05
6.00586e-05
0.000165456
4.87453e-05
0.000141363
6.00426e-05
0.000165461
4.87476e-05
4.76222e-05
4.76229e-05
0.000112177
4.76212e-05
4.76218e-05
4.42592e-05
4.91743e-05
4.42584e-05
4.91741e-05
2.38869e-05
2.38875e-05
4.42682e-05
4.91716e-05
4.42677e-05
4.91711e-05
0.000185931
0.000185922
0.000185926
0.00018593
0.00018593
0.000185921
0.000185926
6.00637e-05
4.87386e-05
0.000165461
0.000141375
6.00477e-05
4.8741e-05
0.000165465
2.38842e-05
2.38849e-05
6.00583e-05
0.000165458
4.87454e-05
0.000141363
6.00424e-05
0.000165464
4.87477e-05
4.76229e-05
4.76236e-05
0.000112178
4.76219e-05
4.76225e-05
4.42592e-05
4.91744e-05
4.42587e-05
4.91743e-05
2.38869e-05
2.38877e-05
4.42682e-05
4.91715e-05
4.4268e-05
4.91714e-05
0.000185933
0.000185924
0.000185929
0.000185928
0.000185929
0.00018592
0.000185925
6.00635e-05
4.87392e-05
0.00016546
0.000141375
6.00477e-05
4.87414e-05
0.000165463
2.38842e-05
2.3885e-05
6.00581e-05
0.000165458
4.87459e-05
0.000141363
6.00425e-05
0.000165461
4.8748e-05
4.76245e-05
4.76251e-05
0.000112177
4.76234e-05
4.7624e-05
4.42584e-05
4.91745e-05
4.42582e-05
4.91745e-05
2.38868e-05
2.38878e-05
4.42674e-05
4.91717e-05
4.42673e-05
4.91717e-05
0.000185932
0.000185923
0.000185928
0.000185928
0.000185929
0.00018592
0.000185925
6.00634e-05
4.874e-05
0.00016546
0.000141375
6.00477e-05
4.87419e-05
0.000165464
2.38842e-05
2.38852e-05
6.00575e-05
0.000165457
4.87466e-05
0.000141363
6.00422e-05
0.000165459
4.87485e-05
4.76249e-05
4.76255e-05
0.000112177
4.76244e-05
4.76249e-05
4.42571e-05
4.91746e-05
4.42571e-05
4.91748e-05
2.38868e-05
2.3888e-05
4.42661e-05
4.91719e-05
4.42663e-05
4.91721e-05
0.000185933
0.000185923
0.000185928
0.000185929
0.000185929
0.00018592
0.000185925
6.0063e-05
4.87413e-05
0.00016546
0.000141376
6.00477e-05
4.8743e-05
0.000165464
2.38842e-05
2.38854e-05
6.00564e-05
0.000165456
4.87479e-05
0.000141364
6.00414e-05
0.00016546
4.87495e-05
4.7626e-05
4.76264e-05
0.000112177
4.76256e-05
4.7626e-05
4.42557e-05
4.91749e-05
4.42559e-05
4.91755e-05
2.38868e-05
2.38883e-05
4.42647e-05
4.91721e-05
4.42651e-05
4.91727e-05
0.000185933
0.000185923
0.000185928
0.000185929
0.00018593
0.000185921
0.000185925
6.00622e-05
4.87439e-05
0.000165461
0.000141378
6.00475e-05
4.87453e-05
0.000165463
2.38842e-05
2.38858e-05
6.00554e-05
0.000165457
4.87504e-05
0.000141366
6.00408e-05
0.000165461
4.87515e-05
4.76295e-05
4.76299e-05
0.000112177
4.76294e-05
4.76298e-05
4.42539e-05
4.91754e-05
4.42543e-05
4.91766e-05
2.38868e-05
2.38889e-05
4.42629e-05
4.91726e-05
4.42635e-05
4.91737e-05
0.000185933
0.000185924
0.000185928
0.000185928
0.00018593
0.000185921
0.000185925
6.0061e-05
4.87489e-05
0.000165462
0.000141381
6.00471e-05
4.87494e-05
0.000165465
2.38842e-05
2.38864e-05
6.00541e-05
0.000165458
4.87552e-05
0.000141369
6.00402e-05
0.000165461
4.87556e-05
4.76377e-05
4.76381e-05
0.000112178
4.76358e-05
4.76363e-05
4.42519e-05
4.91764e-05
4.42523e-05
4.91785e-05
2.38864e-05
2.38894e-05
4.42609e-05
4.91735e-05
4.42615e-05
4.91756e-05
0.000185933
0.000185924
0.000185929
0.00018593
0.000185931
0.000185921
0.000185926
6.00597e-05
4.87574e-05
0.000165463
0.000141387
6.00468e-05
4.87561e-05
0.000165471
2.3884e-05
2.38871e-05
6.00529e-05
0.000165459
4.87634e-05
0.000141373
6.004e-05
0.000165462
4.87617e-05
4.76427e-05
4.76432e-05
0.000112179
4.76335e-05
4.76341e-05
4.42498e-05
4.91779e-05
4.42497e-05
4.91816e-05
2.38856e-05
2.38899e-05
4.42587e-05
4.91749e-05
4.42589e-05
4.91786e-05
0.000185934
0.000185925
0.000185929
0.00018593
0.000185932
0.000185922
0.000185926
6.00587e-05
4.87704e-05
0.000165466
0.000141397
6.00477e-05
4.87655e-05
0.00016547
2.38834e-05
2.38877e-05
6.00521e-05
0.000165462
4.87758e-05
0.000141385
6.0041e-05
0.000165474
4.87704e-05
4.76378e-05
4.76384e-05
0.00011218
4.76198e-05
4.76204e-05
4.42466e-05
4.91793e-05
4.42458e-05
4.9184e-05
2.38842e-05
2.38902e-05
4.42555e-05
4.91763e-05
4.4255e-05
4.91811e-05
0.000185936
0.000185926
0.00018593
0.000185932
0.000185934
0.000185925
0.000185928
6.00575e-05
4.87883e-05
0.000165471
0.00014141
6.00499e-05
4.87707e-05
0.000165477
2.38821e-05
2.38881e-05
6.00515e-05
0.000165467
4.87916e-05
0.000141399
6.00437e-05
0.00016547
4.87726e-05
4.76217e-05
4.76223e-05
0.000112183
4.75915e-05
4.75922e-05
4.42452e-05
4.91762e-05
4.42408e-05
4.91826e-05
2.38819e-05
2.38902e-05
4.4254e-05
4.91736e-05
4.42498e-05
4.91799e-05
0.000185938
0.000185929
0.000185931
0.000185937
0.000185938
0.000185929
0.000185931
6.00566e-05
4.87923e-05
0.00016548
0.000141433
6.00543e-05
4.87508e-05
0.00016549
2.38799e-05
2.38882e-05
6.0051e-05
0.000165476
4.87927e-05
0.00014142
6.00485e-05
0.000165487
4.87501e-05
4.75918e-05
4.75924e-05
0.000112189
4.75448e-05
4.75454e-05
4.42318e-05
4.91663e-05
4.42297e-05
4.91764e-05
2.38784e-05
2.38894e-05
4.42424e-05
4.91637e-05
4.42395e-05
4.91738e-05
0.000185943
0.000185934
0.000185936
0.000185973
0.000185967
0.000185958
0.00018596
6.00541e-05
4.87781e-05
0.000165494
0.000141468
6.0062e-05
4.86993e-05
0.000165502
2.38765e-05
2.38875e-05
6.00491e-05
0.000165488
4.87763e-05
0.000141457
6.00569e-05
0.000165495
4.86971e-05
4.7545e-05
4.75456e-05
0.000112202
4.74761e-05
4.74765e-05
4.41914e-05
4.91495e-05
4.42022e-05
4.91857e-05
2.3875e-05
2.38969e-05
4.41978e-05
4.91463e-05
4.42108e-05
4.91831e-05
0.000185987
0.000185978
0.000185979
0.000186587
0.000186593
0.00018659
0.00018659
6.01331e-05
4.87454e-05
0.000165589
0.000141773
6.00903e-05
4.86163e-05
0.00016551
2.38731e-05
2.38951e-05
6.01287e-05
0.000165584
4.87434e-05
0.000141764
6.00854e-05
0.000165507
4.86147e-05
4.74756e-05
4.74761e-05
0.000112474
4.73757e-05
4.73772e-05
4.3319e-05
5.23652e-05
4.40026e-05
9.47067e-05
2.66793e-05
3.53574e-05
4.33223e-05
5.23619e-05
4.40061e-05
9.46995e-05
0.000214587
0.000203071
0.000203079
0.00018365
0.000214131
0.000201355
0.000201363
6.32553e-05
4.86467e-05
0.000168117
0.000147832
6.11913e-05
5.95238e-05
0.000172308
2.66778e-05
3.53604e-05
6.32502e-05
0.000168115
4.86462e-05
0.00014783
6.11874e-05
0.000172308
5.95244e-05
4.77527e-05
4.77503e-05
0.000120934
4.67712e-05
4.67711e-05
2.38881e-05
2.38864e-05
4.7588e-05
4.75924e-05
4.91735e-05
4.42177e-05
4.91756e-05
4.91765e-05
4.42219e-05
4.87446e-05
0.000165558
6.00936e-05
0.000141438
4.8735e-05
0.000165556
4.87327e-05
6.00952e-05
2.38874e-05
2.38869e-05
0.000112092
4.75998e-05
4.75877e-05
4.75894e-05
4.75761e-05
2.38878e-05
2.38873e-05
4.9171e-05
4.42266e-05
4.87515e-05
0.000165558
6.00937e-05
4.91669e-05
4.42262e-05
0.000165548
4.87482e-05
6.00948e-05
6.00661e-05
0.00014147
4.87342e-05
0.000165559
4.87244e-05
0.000165559
6.00941e-05
4.42127e-05
4.91739e-05
4.91749e-05
4.42282e-05
6.00644e-05
0.000141448
0.000165558
4.87319e-05
0.000165559
4.87304e-05
6.00922e-05
4.4212e-05
4.91709e-05
4.91717e-05
4.42275e-05
2.38848e-05
4.75778e-05
4.759e-05
2.38871e-05
0.000165553
4.87464e-05
6.00919e-05
0.000141472
0.000165559
4.87315e-05
4.87346e-05
6.00929e-05
4.91708e-05
4.42216e-05
4.91703e-05
4.91712e-05
4.42253e-05
0.000112093
4.75904e-05
4.75903e-05
4.75786e-05
4.7579e-05
2.38868e-05
2.38863e-05
2.38859e-05
2.38854e-05
2.38875e-05
2.38879e-05
2.38858e-05
2.38862e-05
4.75851e-05
4.75892e-05
0.000112253
4.75912e-05
4.75945e-05
2.38877e-05
2.38874e-05
2.3886e-05
2.38857e-05
0.000112076
4.75963e-05
4.75994e-05
4.75878e-05
4.75917e-05
4.42265e-05
4.91757e-05
4.42185e-05
4.9175e-05
6.00944e-05
4.87429e-05
0.000165557
0.000141441
6.00805e-05
4.87517e-05
0.000165558
6.00957e-05
4.87304e-05
0.000165556
0.000141441
6.00819e-05
4.87402e-05
0.000165556
4.42154e-05
4.91724e-05
4.9173e-05
4.42248e-05
4.4221e-05
4.91746e-05
4.91751e-05
4.423e-05
6.00827e-05
0.00014144
4.87549e-05
0.000165554
4.87469e-05
0.000165555
6.00961e-05
6.00838e-05
0.00014144
4.87458e-05
0.000165554
4.87357e-05
0.000165554
6.00971e-05
4.75964e-05
4.75839e-05
0.00011227
4.76036e-05
4.75921e-05
2.38872e-05
2.38877e-05
2.3887e-05
2.38867e-05
0.000112092
4.76075e-05
4.7597e-05
4.75996e-05
4.75873e-05
2.38875e-05
2.38871e-05
6.00949e-05
4.87485e-05
0.000165558
0.000141468
6.00808e-05
4.87584e-05
0.000165557
4.4231e-05
4.91671e-05
4.42231e-05
4.91662e-05
6.00958e-05
0.000165548
4.87459e-05
0.00014144
6.00817e-05
0.000165548
4.87585e-05
4.42244e-05
4.91696e-05
4.91704e-05
4.42337e-05
6.00835e-05
0.000141467
4.87621e-05
0.000165551
4.87539e-05
0.000165551
6.00968e-05
4.42259e-05
4.91658e-05
4.91664e-05
4.42348e-05
6.00841e-05
0.000141439
0.000165545
4.87594e-05
0.000165545
4.87538e-05
6.00975e-05
4.42316e-05
4.91741e-05
4.42227e-05
4.91733e-05
6.00945e-05
0.00016557
4.87275e-05
0.000141451
6.0081e-05
0.00016557
4.87376e-05
4.42309e-05
4.9171e-05
4.42221e-05
4.91703e-05
6.00849e-05
0.000141476
4.87633e-05
0.00016556
4.87555e-05
0.000165566
6.00987e-05
4.42263e-05
4.9173e-05
4.91735e-05
4.42352e-05
6.00829e-05
0.00014145
0.000165563
4.87436e-05
0.000165564
4.87333e-05
6.00961e-05
4.42256e-05
4.91699e-05
4.91704e-05
4.42345e-05
4.75747e-05
4.75869e-05
0.000112253
4.75813e-05
4.75926e-05
2.38865e-05
2.38869e-05
2.38845e-05
2.38841e-05
0.000112076
4.75864e-05
4.75977e-05
4.75767e-05
4.75897e-05
2.38867e-05
2.38864e-05
6.00941e-05
0.000165559
4.87274e-05
0.000141474
6.008e-05
0.000165559
4.87379e-05
4.42262e-05
4.91708e-05
4.42182e-05
4.91701e-05
4.42302e-05
4.91704e-05
4.42223e-05
4.91698e-05
6.00827e-05
0.000141469
0.000165557
4.87542e-05
0.000165557
4.87458e-05
6.00965e-05
6.00826e-05
0.000141473
0.000165559
4.87435e-05
0.000165559
4.87336e-05
6.0096e-05
4.42207e-05
4.91696e-05
4.91702e-05
4.42297e-05
4.42251e-05
4.91694e-05
4.91699e-05
4.42339e-05
2.38863e-05
2.38866e-05
2.38854e-05
2.38858e-05
0.000112093
4.75968e-05
4.75967e-05
4.75877e-05
4.75881e-05
2.38864e-05
2.38861e-05
2.38855e-05
2.38852e-05
2.38872e-05
2.38875e-05
2.38855e-05
2.38859e-05
4.75932e-05
4.75959e-05
0.000112258
4.76009e-05
4.76038e-05
2.38874e-05
2.3887e-05
2.38857e-05
2.38853e-05
0.000112082
4.76051e-05
4.76075e-05
4.75972e-05
4.76002e-05
4.42343e-05
4.91747e-05
4.42249e-05
4.91743e-05
6.00979e-05
4.87497e-05
0.000165553
0.000141447
6.00844e-05
4.87562e-05
0.000165553
6.0099e-05
4.87413e-05
0.000165556
0.000141446
6.00854e-05
4.87509e-05
0.000165555
4.42244e-05
4.9172e-05
4.91723e-05
4.42346e-05
4.42293e-05
4.91743e-05
4.91745e-05
4.42393e-05
6.00862e-05
0.000141445
4.87558e-05
0.000165553
4.87505e-05
0.000165553
6.00996e-05
6.00873e-05
0.000141445
4.87543e-05
0.000165554
4.87462e-05
0.000165554
6.01007e-05
4.76039e-05
4.75924e-05
0.000112276
4.76117e-05
4.7601e-05
2.3887e-05
2.38874e-05
2.38868e-05
2.38864e-05
0.000112097
4.76155e-05
4.76049e-05
4.76085e-05
4.75963e-05
2.38873e-05
2.38869e-05
6.00987e-05
4.87559e-05
0.000165551
0.000141471
6.00854e-05
4.87589e-05
0.000165551
4.42392e-05
4.9166e-05
4.42299e-05
4.91655e-05
6.00993e-05
0.000165545
4.87524e-05
0.00014144
6.00858e-05
0.000165545
4.87539e-05
4.42335e-05
4.91691e-05
4.91695e-05
4.42433e-05
6.00872e-05
0.000141468
4.87535e-05
0.000165548
4.87515e-05
0.00016555
6.01001e-05
4.42344e-05
4.91653e-05
4.91657e-05
4.42439e-05
6.00875e-05
0.000141434
0.00016554
4.87482e-05
0.000165541
4.87464e-05
6.01005e-05
4.42392e-05
4.91732e-05
4.42299e-05
4.91727e-05
6.00981e-05
0.000165563
4.87391e-05
0.000141456
6.00846e-05
0.000165563
4.87485e-05
4.42385e-05
4.917e-05
4.42293e-05
4.91696e-05
6.00892e-05
0.00014148
4.87548e-05
0.000165554
4.87528e-05
0.000165559
6.01028e-05
4.4234e-05
4.91727e-05
4.9173e-05
4.42435e-05
6.00867e-05
0.000141455
0.000165554
4.87513e-05
0.000165561
4.87437e-05
6.01001e-05
4.42333e-05
4.91696e-05
4.91699e-05
4.42428e-05
4.75819e-05
4.75939e-05
0.000112259
4.75905e-05
4.76025e-05
2.38862e-05
2.38866e-05
2.38843e-05
2.38838e-05
0.000112081
4.75948e-05
4.76068e-05
4.75861e-05
4.75991e-05
2.38865e-05
2.38861e-05
6.00984e-05
0.000165564
4.87388e-05
0.000141481
6.00846e-05
0.000165563
4.87477e-05
4.42338e-05
4.91697e-05
4.42245e-05
4.91693e-05
4.42383e-05
4.91696e-05
4.4229e-05
4.91692e-05
6.0086e-05
0.000141474
0.000165559
4.87549e-05
0.000165561
4.87496e-05
6.00997e-05
6.0087e-05
0.00014148
0.000165558
4.875e-05
0.000165559
4.87426e-05
6.01005e-05
4.42287e-05
4.91691e-05
4.91694e-05
4.42383e-05
4.42335e-05
4.91691e-05
4.91694e-05
4.42431e-05
2.38859e-05
2.38863e-05
2.3885e-05
2.38854e-05
0.0001121
4.7604e-05
4.76034e-05
4.75956e-05
4.75952e-05
2.38862e-05
2.38858e-05
2.38853e-05
2.38849e-05
2.38869e-05
2.38873e-05
2.38852e-05
2.38857e-05
4.76016e-05
4.76043e-05
0.000112261
4.76091e-05
4.76114e-05
2.38873e-05
2.38869e-05
2.38857e-05
2.38852e-05
0.000112084
4.76126e-05
4.7615e-05
4.76057e-05
4.76075e-05
4.42453e-05
4.91745e-05
4.42345e-05
4.91743e-05
6.01022e-05
4.87499e-05
0.000165558
0.000141446
6.0088e-05
4.8755e-05
0.000165558
6.01032e-05
4.87489e-05
0.000165556
0.000141451
6.00891e-05