/*--------------------------------*- C++ -*----------------------------------*\
| =========                 |                                                 |
| \\      /  F ield         | OpenFOAM: The Open Source CFD Toolbox           |
|  \\    /   O peration     | Version:  v1912                                 |
|   \\  /    A nd           | Website:  www.openfoam.com                      |
|    \\/     M anipulation  |                                                 |
\*---------------------------------------------------------------------------*/
FoamFile
{
    version     2.0;
    format      ascii;
    class       volScalarField;
    location    "60";
    object      p;
}
// * * * * * * * * * * * * * * * * * * * * * * * * * * * * * * * * * * * * * //

dimensions      [0 2 -2 0 0 0 0];


internalField   nonuniform List<scalar> 
57062
(
0.00109271
0.00109265
0.00109265
0.00109485
0.00105499
0.00105493
0.00105493
0.00105713
0.00101727
0.00101722
0.00101722
0.00101942
0.000979562
0.000979508
0.000979508
0.000981706
0.000941854
0.0009418
0.000941799
0.000943997
0.000904145
0.00090409
0.00090409
0.000906288
0.000866434
0.00086638
0.00086638
0.000868578
0.00082872
0.000828665
0.000828665
0.000830864
0.000791003
0.000790949
0.000790949
0.000793147
0.000753282
0.000753228
0.000753228
0.000755427
0.000715553
0.000715497
0.000715498
0.000717696
0.000677817
0.000677762
0.000677763
0.000679961
0.000640088
0.000640033
0.000640033
0.000642231
0.000602362
0.000602309
0.000602308
0.000604507
0.000564639
0.000564585
0.000564585
0.000566783
0.000526914
0.00052686
0.00052686
0.000529058
0.000489186
0.000489132
0.000489132
0.00049133
0.000451457
0.000451402
0.000451402
0.000453601
0.000413728
0.000413674
0.000413674
0.000415872
0.000375995
0.000375941
0.000375941
0.000378139
0.000338261
0.000338207
0.000338207
0.000340404
0.000300525
0.000300471
0.00030047
0.000302667
0.000262787
0.000262732
0.000262732
0.000264928
0.000225046
0.000224991
0.000224991
0.000227184
0.000187298
0.000187247
0.000187247
0.000189436
0.000149543
0.000149494
0.000149494
0.000151676
0.000111769
0.000111724
0.000111724
0.000113895
7.39753e-05
7.39285e-05
7.3927e-05
7.60794e-05
3.66677e-05
3.62493e-05
3.62462e-05
3.83651e-05
5.56918e-06
4.87856e-06
4.87678e-06
4.24433e-06
0.0010999
0.00110208
0.00110208
0.0010999
0.00110208
0.00110208
0.00110208
0.00110208
0.0010999
0.00110208
0.00110208
0.0010999
0.00109485
0.00106218
0.00109265
0.00109265
0.00106436
0.00106436
0.00109485
0.00106218
0.00109265
0.00109265
0.00106436
0.00106436
0.00109265
0.00106436
0.00106436
0.00109485
0.00106218
0.00109265
0.00106436
0.00106436
0.00106218
0.00105713
0.00102447
0.00105493
0.00105493
0.00102665
0.00102665
0.00105713
0.00102447
0.00105493
0.00105493
0.00102665
0.00102665
0.00105493
0.00102665
0.00102665
0.00105713
0.00102447
0.00105493
0.00102665
0.00102665
0.00102446
0.00101942
0.000986754
0.00101722
0.00101722
0.000988936
0.000988936
0.00101942
0.000986755
0.00101722
0.00101722
0.000988935
0.000988935
0.00101722
0.000988936
0.000988936
0.00101942
0.000986754
0.00101722
0.000988935
0.000988935
0.000986754
0.000981705
0.000949045
0.000979508
0.000979508
0.000951227
0.000951226
0.000981706
0.000949046
0.000979508
0.000979508
0.000951226
0.000951226
0.000979508
0.000951227
0.000951227
0.000981705
0.000949045
0.000979508
0.000951226
0.000951226
0.000949045
0.000943997
0.000911337
0.000941799
0.000941799
0.000913518
0.000913518
0.000943997
0.000911337
0.000941799
0.000941799
0.000913518
0.000913518
0.0009418
0.000913518
0.000913518
0.000943997
0.000911337
0.000941799
0.000913518
0.000913518
0.000911337
0.000906288
0.000873627
0.000904091
0.00090409
0.000875808
0.000875808
0.000906288
0.000873627
0.00090409
0.00090409
0.000875808
0.000875808
0.000904091
0.000875808
0.000875808
0.000906288
0.000873627
0.000904091
0.000875808
0.000875808
0.000873627
0.000868578
0.000835913
0.00086638
0.00086638
0.000838094
0.000838094
0.000868578
0.000835913
0.00086638
0.00086638
0.000838094
0.000838095
0.000866381
0.000838094
0.000838095
0.000868578
0.000835913
0.00086638
0.000838095
0.000838095
0.000835913
0.000830863
0.000798196
0.000828665
0.000828665
0.000800378
0.000800378
0.000830863
0.000798197
0.000828665
0.000828666
0.000800378
0.000800378
0.000828666
0.000800378
0.000800379
0.000830864
0.000798196
0.000828666
0.000800378
0.000800378
0.000798197
0.000793147
0.000760477
0.000790949
0.000790949
0.000762659
0.000762659
0.000793147
0.000760478
0.000790948
0.000790949
0.000762659
0.000762659
0.000790949
0.000762659
0.000762659
0.000793147
0.000760477
0.000790949
0.000762659
0.000762659
0.000760477
0.000755427
0.000722749
0.000753228
0.000753228
0.000724932
0.000724931
0.000755427
0.000722748
0.000753228
0.000753229
0.000724931
0.000724931
0.000753228
0.000724931
0.000724931
0.000755427
0.000722749
0.000753228
0.000724931
0.000724931
0.000722748
0.000717697
0.000685013
0.000715498
0.000715497
0.000687196
0.000687196
0.000717696
0.000685013
0.000715498
0.000715498
0.000687196
0.000687196
0.000715497
0.000687196
0.000687196
0.000717697
0.000685013
0.000715497
0.000687196
0.000687196
0.000685013
0.000679961
0.000647282
0.000677763
0.000677762
0.000649465
0.000649465
0.000679961
0.000647282
0.000677762
0.000677763
0.000649465
0.000649465
0.000677763
0.000649465
0.000649465
0.000679961
0.000647282
0.000677763
0.000649465
0.000649465
0.000647282
0.000642232
0.000609557
0.000640033
0.000640033
0.000611739
0.000611739
0.000642231
0.000609557
0.000640033
0.000640033
0.000611739
0.000611739
0.000640033
0.000611739
0.000611739
0.000642231
0.000609557
0.000640033
0.000611739
0.000611739
0.000609557
0.000604506
0.000571833
0.000602308
0.000602308
0.000574016
0.000574016
0.000604507
0.000571834
0.000602308
0.000602308
0.000574015
0.000574016
0.000602309
0.000574016
0.000574016
0.000604507
0.000571833
0.000602308
0.000574016
0.000574016
0.000571834
0.000566783
0.000534109
0.000564585
0.000564585
0.000536291
0.000536291
0.000566783
0.000534109
0.000564585
0.000564585
0.000536291
0.000536291
0.000564585
0.000536291
0.000536291
0.000566783
0.000534109
0.000564585
0.000536291
0.000536291
0.000534109
0.000529058
0.000496382
0.00052686
0.00052686
0.000498564
0.000498564
0.000529058
0.000496382
0.000526859
0.00052686
0.000498564
0.000498564
0.00052686
0.000498564
0.000498564
0.000529058
0.000496381
0.00052686
0.000498564
0.000498564
0.000496381
0.00049133
0.000458653
0.000489132
0.000489132
0.000460835
0.000460835
0.00049133
0.000458653
0.000489132
0.000489132
0.000460834
0.000460835
0.000489132
0.000460835
0.000460835
0.00049133
0.000458653
0.000489132
0.000460835
0.000460835
0.000458653
0.0004536
0.000420923
0.000451402
0.000451402
0.000423106
0.000423106
0.0004536
0.000420924
0.000451402
0.000451402
0.000423106
0.000423106
0.000451403
0.000423106
0.000423106
0.000453601
0.000420923
0.000451403
0.000423106
0.000423106
0.000420923
0.000415872
0.000383192
0.000413674
0.000413674
0.000385374
0.000385374
0.000415872
0.000383193
0.000413674
0.000413674
0.000385374
0.000385374
0.000413674
0.000385374
0.000385375
0.000415872
0.000383192
0.000413674
0.000385374
0.000385374
0.000383192
0.000378139
0.000345459
0.000375941
0.000375941
0.00034764
0.00034764
0.000378139
0.000345459
0.000375941
0.000375941
0.00034764
0.00034764
0.000375941
0.00034764
0.000347641
0.000378139
0.000345459
0.000375941
0.00034764
0.00034764
0.000345458
0.000340404
0.000307723
0.000338207
0.000338207
0.000309905
0.000309905
0.000340404
0.000307723
0.000338207
0.000338207
0.000309905
0.000309905
0.000338207
0.000309905
0.000309905
0.000340404
0.000307723
0.000338207
0.000309905
0.000309905
0.000307723
0.000302667
0.000269987
0.000300471
0.00030047
0.000272168
0.000272167
0.000302667
0.000269987
0.00030047
0.000300471
0.000272167
0.000272168
0.000300471
0.000272167
0.000272168
0.000302667
0.000269987
0.000300471
0.000272168
0.000272168
0.000269987
0.000264928
0.000232248
0.000262732
0.000262732
0.000234428
0.000234428
0.000264928
0.000232248
0.000262732
0.000262732
0.000234428
0.000234428
0.000262733
0.000234428
0.000234428
0.000264928
0.000232248
0.000262733
0.000234428
0.000234428
0.000232248
0.000227185
0.000194507
0.000224992
0.000224991
0.000196685
0.000196685
0.000227185
0.000194507
0.000224991
0.000224991
0.000196685
0.000196685
0.000224991
0.000196685
0.000196686
0.000227185
0.000194507
0.000224991
0.000196685
0.000196685
0.000194507
0.000189436
0.00015676
0.000187247
0.000187247
0.000158936
0.000158936
0.000189436
0.00015676
0.000187246
0.000187247
0.000158936
0.000158936
0.000187247
0.000158936
0.000158936
0.000189436
0.00015676
0.000187247
0.000158936
0.000158936
0.00015676
0.000151676
0.000118999
0.000149494
0.000149494
0.000121174
0.000121174
0.000151676
0.000119
0.000149494
0.000149494
0.000121173
0.000121173
0.000149494
0.000121173
0.000121174
0.000151676
0.000118999
0.000149494
0.000121173
0.000121174
0.000118999
0.000113896
8.12131e-05
0.000111725
0.000111725
8.33863e-05
8.33864e-05
0.000113896
8.12137e-05
0.000111724
0.000111724
8.33858e-05
8.33854e-05
0.000111725
8.33862e-05
8.33854e-05
0.000113895
8.1212e-05
0.000111724
8.33853e-05
8.33852e-05
8.12122e-05
7.60808e-05
4.34613e-05
7.39285e-05
7.39286e-05
4.56171e-05
4.56175e-05
7.60806e-05
4.34622e-05
7.39278e-05
7.39269e-05
4.56147e-05
4.56142e-05
7.39275e-05
4.56158e-05
4.5614e-05
7.60801e-05
4.34587e-05
7.3927e-05
4.56132e-05
4.56123e-05
4.34583e-05
3.83691e-05
8.09187e-06
3.62518e-05
3.62522e-05
1.03842e-05
1.03838e-05
3.83693e-05
8.09144e-06
3.62493e-05
3.62482e-05
1.03825e-05
1.03789e-05
3.62476e-05
1.03809e-05
1.03765e-05
3.83659e-05
8.08734e-06
3.62454e-05
1.03786e-05
1.03778e-05
8.08563e-06
4.24899e-06
4.88112e-06
4.88085e-06
4.24948e-06
4.87806e-06
4.87612e-06
5.56914e-06
5.56639e-06
5.56591e-06
4.87455e-06
4.2461e-06
4.87528e-06
0.00110214
0.00110214
0.00110214
0.00110214
0.00108091
0.00109502
0.00109502
0.0010809
0.00109501
0.0010809
0.00108091
0.00109502
0.00109502
0.0010809
0.00109271
0.00109271
0.00109271
0.00106442
0.00106442
0.00106442
0.00106442
0.00108095
0.00109498
0.00109266
0.00108322
0.00109498
0.00108094
0.00108323
0.00109502
0.0010809
0.00108095
0.00109266
0.00109498
0.00108322
0.00109498
0.00108323
0.00108094
0.00109502
0.00109502
0.00108104
0.0010809
0.0010809
0.00104319
0.0010573
0.0010573
0.00104319
0.0010573
0.00104319
0.00104319
0.0010573
0.0010573
0.00104319
0.00105499
0.00105499
0.00105499
0.0010267
0.0010267
0.0010267
0.0010267
0.00104323
0.00105726
0.00105495
0.0010455
0.00105726
0.00104322
0.00104552
0.0010573
0.00104319
0.00104323
0.00105494
0.00105726
0.0010455
0.00105726
0.00104552
0.00104322
0.0010573
0.0010573
0.00104332
0.00104318
0.00104318
0.00100548
0.00101958
0.00101958
0.00100548
0.00101958
0.00100547
0.00100548
0.00101958
0.00101958
0.00100548
0.00101727
0.00101727
0.00101727
0.00098899
0.00098899
0.00098899
0.00098899
0.00100552
0.00101955
0.00101723
0.00100779
0.00101955
0.00100551
0.0010078
0.00101958
0.00100547
0.00100552
0.00101723
0.00101955
0.00100779
0.00101955
0.0010078
0.00100551
0.00101959
0.00101959
0.00100561
0.00100547
0.00100547
0.000967767
0.00098187
0.000981874
0.000967766
0.000981872
0.000967764
0.000967767
0.00098187
0.000981874
0.000967765
0.000979563
0.000979562
0.000979562
0.000951281
0.000951281
0.000951281
0.000951281
0.000967809
0.000981837
0.000979521
0.000970081
0.000981838
0.000967798
0.000970094
0.000981872
0.000967764
0.000967807
0.00097952
0.000981836
0.00097008
0.000981836
0.000970093
0.000967797
0.000981877
0.000981876
0.0009679
0.000967761
0.000967761
0.000930058
0.000944162
0.000944165
0.000930057
0.000944164
0.000930056
0.000930058
0.000944162
0.000944165
0.000930057
0.000941854
0.000941854
0.000941854
0.000913572
0.000913572
0.000913572
0.000913572
0.0009301
0.000944128
0.000941812
0.000932372
0.000944129
0.00093009
0.000932385
0.000944164
0.000930056
0.000930101
0.000941812
0.000944128
0.000932372
0.000944128
0.000932385
0.000930091
0.000944168
0.000944168
0.000930191
0.000930053
0.000930053
0.00089235
0.000906454
0.000906456
0.000892348
0.000906455
0.000892347
0.00089235
0.000906454
0.000906457
0.000892349
0.000904145
0.000904145
0.000904145
0.000875862
0.000875862
0.000875862
0.000875862
0.000892391
0.000906419
0.000904103
0.000894663
0.000906419
0.000892381
0.000894676
0.000906455
0.000892346
0.000892391
0.000904103
0.00090642
0.000894663
0.00090642
0.000894676
0.00089238
0.000906459
0.00090646
0.000892482
0.000892344
0.000892344
0.000854638
0.000868744
0.000868747
0.000854637
0.000868746
0.000854636
0.000854638
0.000868744
0.000868747
0.000854637
0.000866434
0.000866435
0.000866434
0.000838149
0.000838149
0.000838149
0.000838149
0.000854679
0.00086871
0.000866393
0.000856952
0.00086871
0.00085467
0.000856964
0.000868746
0.000854636
0.00085468
0.000866393
0.000868711
0.000856952
0.00086871
0.000856965
0.000854671
0.00086875
0.00086875
0.000854771
0.000854633
0.000854633
0.000816923
0.000831029
0.000831032
0.000816921
0.000831031
0.00081692
0.000816923
0.000831029
0.000831033
0.000816922
0.00082872
0.00082872
0.00082872
0.000800432
0.000800432
0.000800432
0.000800433
0.000816964
0.000830995
0.000828678
0.000819236
0.000830995
0.000816954
0.000819249
0.000831031
0.00081692
0.000816964
0.000828678
0.000830995
0.000819236
0.000830995
0.000819249
0.000816954
0.000831035
0.000831035
0.000817055
0.000816917
0.000816917
0.000779206
0.000793313
0.000793316
0.000779205
0.000793315
0.000779204
0.000779206
0.000793313
0.000793316
0.000779205
0.000791003
0.000791003
0.000791003
0.000762713
0.000762714
0.000762713
0.000762713
0.000779247
0.000793279
0.000790961
0.000781519
0.000793279
0.000779237
0.000781532
0.000793314
0.000779203
0.000779247
0.000790961
0.000793279
0.000781519
0.000793279
0.000781532
0.000779237
0.000793319
0.000793319
0.000779338
0.000779201
0.000779201
0.000741485
0.000755594
0.000755597
0.000741483
0.000755596
0.000741482
0.000741485
0.000755594
0.000755597
0.000741483
0.000753283
0.000753283
0.000753282
0.000724986
0.000724985
0.000724986
0.000724985
0.000741524
0.00075556
0.000753241
0.000743797
0.00075556
0.000741515
0.000743809
0.000755596
0.000741482
0.000741524
0.000753241
0.00075556
0.000743797
0.000755559
0.000743809
0.000741515
0.0007556
0.0007556
0.000741614
0.000741478
0.000741478
0.00070375
0.000717865
0.000717868
0.000703749
0.000717865
0.000703746
0.00070375
0.000717865
0.000717868
0.000703749
0.000715552
0.000715552
0.000715552
0.00068725
0.00068725
0.00068725
0.00068725
0.000703789
0.000717829
0.00071551
0.000706063
0.000717828
0.00070378
0.000706076
0.000717866
0.000703746
0.00070379
0.00071551
0.00071783
0.000706064
0.000717829
0.000706076
0.000703781
0.000717869
0.000717869
0.00070388
0.000703743
0.000703743
0.000666015
0.000680127
0.00068013
0.000666013
0.000680129
0.000666012
0.000666015
0.000680127
0.00068013
0.000666014
0.000677817
0.000677817
0.000677817
0.00064952
0.000649519
0.00064952
0.000649519
0.000666056
0.000680093
0.000677775
0.000668329
0.000680093
0.000666046
0.000668342
0.000680129
0.000666013
0.000666056
0.000677775
0.000680094
0.00066833
0.000680093
0.000668342
0.000666046
0.000680134
0.000680134
0.000666147
0.00066601
0.00066601
0.000628287
0.000642397
0.0006424
0.000628286
0.000642398
0.000628284
0.000628287
0.000642397
0.0006424
0.000628286
0.000640087
0.000640088
0.000640087
0.000611793
0.000611794
0.000611793
0.000611794
0.000628328
0.000642362
0.000640046
0.000630602
0.000642363
0.000628318
0.000630614
0.000642398
0.000628283
0.000628327
0.000640045
0.000642363
0.000630601
0.000642363
0.000630614
0.000628317
0.000642402
0.000642403
0.000628419
0.000628281
0.000628281
0.000590563
0.000604672
0.000604675
0.000590561
0.000604674
0.000590561
0.000590563
0.000604672
0.000604675
0.000590561
0.000602363
0.000602363
0.000602363
0.00057407
0.00057407
0.00057407
0.00057407
0.000590604
0.000604639
0.000602321
0.000592878
0.000604639
0.000590595
0.00059289
0.000604674
0.000590561
0.000590604
0.000602321
0.000604638
0.000592877
0.000604638
0.00059289
0.000590594
0.000604678
0.000604678
0.000590696
0.000590558
0.000590558
0.00055284
0.000566949
0.000566952
0.000552839
0.00056695
0.000552837
0.000552839
0.000566949
0.000566952
0.000552839
0.000564639
0.000564639
0.000564639
0.000536346
0.000536345
0.000536346
0.000536346
0.00055288
0.000566914
0.000564597
0.000555154
0.000566915
0.000552871
0.000555166
0.00056695
0.000552837
0.00055288
0.000564597
0.000566914
0.000555154
0.000566915
0.000555166
0.00055287
0.000566955
0.000566955
0.000552972
0.000552834
0.000552834
0.000515113
0.000529224
0.000529227
0.000515112
0.000529226
0.000515111
0.000515113
0.000529224
0.000529227
0.000515112
0.000526914
0.000526914
0.000526914
0.000498618
0.000498618
0.000498618
0.000498618
0.000515154
0.00052919
0.000526872
0.000517428
0.00052919
0.000515144
0.00051744
0.000529226
0.000515111
0.000515154
0.000526872
0.00052919
0.000517428
0.00052919
0.00051744
0.000515144
0.00052923
0.00052923
0.000515245
0.000515108
0.000515108
0.000477385
0.000491496
0.000491499
0.000477384
0.000491498
0.000477382
0.000477385
0.000491497
0.000491499
0.000477384
0.000489186
0.000489186
0.000489186
0.000460889
0.000460889
0.000460889
0.000460889
0.000477426
0.000491462
0.000489144
0.000479699
0.000491462
0.000477416
0.000479712
0.000491498
0.000477382
0.000477426
0.000489144
0.000491462
0.000479699
0.000491462
0.000479712
0.000477416
0.000491502
0.000491502
0.000477517
0.000477379
0.000477379
0.000439657
0.000453767
0.00045377
0.000439655
0.000453769
0.000439654
0.000439657
0.000453767
0.00045377
0.000439656
0.000451457
0.000451457
0.000451457
0.00042316
0.00042316
0.00042316
0.00042316
0.000439697
0.000453732
0.000451415
0.00044197
0.000453733
0.000439688
0.000441983
0.000453769
0.000439654
0.000439697
0.000451415
0.000453732
0.00044197
0.000453733
0.000441983
0.000439688
0.000453772
0.000453773
0.000439788
0.000439652
0.000439652
0.000401926
0.000416038
0.00041604
0.000401924
0.000416039
0.000401923
0.000401926
0.000416038
0.000416041
0.000401924
0.000413728
0.000413728
0.000413728
0.000385428
0.000385428
0.000385428
0.000385428
0.000401966
0.000416004
0.000413686
0.000404241
0.000416004
0.000401957
0.000404253
0.00041604
0.000401923
0.000401966
0.000413686
0.000416004
0.000404241
0.000416004
0.000404253
0.000401956
0.000416043
0.000416043
0.000402059
0.00040192
0.00040192
0.000364192
0.000378307
0.00037831
0.000364189
0.000378309
0.000364188
0.000364192
0.000378307
0.00037831
0.00036419
0.000375995
0.000375995
0.000375995
0.000347694
0.000347694
0.000347694
0.000347694
0.000364234
0.000378271
0.000375953
0.000366507
0.000378272
0.000364224
0.00036652
0.000378309
0.000364187
0.000364233
0.000375953
0.000378271
0.000366507
0.000378272
0.000366519
0.000364224
0.000378311
0.000378311
0.000364326
0.000364187
0.000364187
0.000326458
0.000340573
0.000340574
0.000326455
0.000340576
0.000326451
0.000326458
0.000340573
0.000340574
0.000326455
0.000338261
0.000338261
0.000338261
0.000309958
0.000309958
0.000309958
0.000309958
0.000326499
0.000340536
0.000338219
0.000328773
0.000340536
0.00032649
0.000328785
0.000340577
0.000326451
0.000326499
0.000338219
0.000340536
0.000328773
0.000340536
0.000328785
0.00032649
0.000340577
0.000340577
0.000326591
0.000326453
0.000326453
0.000288721
0.000302836
0.000302838
0.000288717
0.00030284
0.000288712
0.000288721
0.000302836
0.000302838
0.000288717
0.000300525
0.000300525
0.000300525
0.00027222
0.00027222
0.00027222
0.00027222
0.000288762
0.000302798
0.000300483
0.000291036
0.000302801
0.000288754
0.000291048
0.00030284
0.000288712
0.000288762
0.000300483
0.000302798
0.000291036
0.000302801
0.000291048
0.000288754
0.000302838
0.000302839
0.000288856
0.000288717
0.000288717
0.000250982
0.000265098
0.0002651
0.000250977
0.000265106
0.00025097
0.000250981
0.000265098
0.0002651
0.000250977
0.000262787
0.000262787
0.000262787
0.000234479
0.000234479
0.000234479
0.000234479
0.000251023
0.000265059
0.000262745
0.000253298
0.000265062
0.000251017
0.000253309
0.000265106
0.000250969
0.000251023
0.000262745
0.000265059
0.000253298
0.000265062
0.000253309
0.000251016
0.0002651
0.0002651
0.000251117
0.000250979
0.000250979
0.000213239
0.000227358
0.000227358
0.000213234
0.000227368
0.000213224
0.000213239
0.000227358
0.000227358
0.000213234
0.000225046
0.000225046
0.000225046
0.00019673
0.00019673
0.00019673
0.00019673
0.000213281
0.000227316
0.000225004
0.000215557
0.000227321
0.000213278
0.000215567
0.000227368
0.000213223
0.000213281
0.000225004
0.000227316
0.000215557
0.00022732
0.000215566
0.000213278
0.000227357
0.000227357
0.000213379
0.000213238
0.000213238
0.00017549
0.000189613
0.000189613
0.000175485
0.000189629
0.000175468
0.00017549
0.000189613
0.000189613
0.000175484
0.000187298
0.000187298
0.000187298
0.000158973
0.000158973
0.000158973
0.000158973
0.000175532
0.000189567
0.00018726
0.000177812
0.000189575
0.000175536
0.000177819
0.000189629
0.000175468
0.000175532
0.00018726
0.000189567
0.000177812
0.000189575
0.000177819
0.000175535
0.000189611
0.000189611
0.000175634
0.000175491
0.000175491
0.000137731
0.00015186
0.00015186
0.000137726
0.000151885
0.000137699
0.000137731
0.00015186
0.00015186
0.000137726
0.000149543
0.000149543
0.000149543
0.000121197
0.000121198
0.000121197
0.000121198
0.000137771
0.000151805
0.000149507
0.000140057
0.000151822
0.000137783
0.000140061
0.000151885
0.000137698
0.000137771
0.000149507
0.000151805
0.000140057
0.000151822
0.000140061
0.000137783
0.000151852
0.000151852
0.000137883
0.000137739
0.000137739
9.99494e-05
0.000114085
0.000114088
9.99512e-05
0.000114128
9.99011e-05
9.99488e-05
0.000114085
0.000114087
9.99508e-05
0.000111769
0.000111769
0.000111769
8.33907e-05
8.339e-05
8.33899e-05
8.33896e-05
9.99835e-05
0.000114021
0.000111737
0.000102283
0.000114052
0.000100017
0.00010228
0.000114128
9.98997e-05
9.9983e-05
0.000111737
0.00011402
0.000102283
0.000114051
0.00010228
0.000100016
0.000114071
0.000114071
0.000100109
9.99653e-05
9.99653e-05
6.21188e-05
7.62755e-05
7.62863e-05
6.21338e-05
7.63654e-05
6.20125e-05
6.21171e-05
7.62749e-05
7.62854e-05
6.2132e-05
7.39741e-05
7.39739e-05
7.39738e-05
4.57602e-05
4.5761e-05
4.57581e-05
4.57579e-05
6.2151e-05
7.6193e-05
7.3948e-05
6.44856e-05
7.62641e-05
6.22185e-05
6.44905e-05
7.63618e-05
6.20149e-05
6.21498e-05
7.39471e-05
7.61916e-05
6.44839e-05
7.62634e-05
6.44894e-05
6.2216e-05
7.62581e-05
7.62581e-05
6.23093e-05
6.21492e-05
6.21493e-05
2.37782e-05
3.81781e-05
3.82642e-05
2.33805e-05
3.83356e-05
2.29788e-05
2.37657e-05
3.81715e-05
3.8258e-05
2.33688e-05
3.6668e-05
3.66648e-05
3.66644e-05
1.19646e-05
1.19641e-05
1.19608e-05
1.19603e-05
2.41883e-05
3.80948e-05
3.64558e-05
2.70992e-05
3.83767e-05
2.37394e-05
2.74211e-05
3.83215e-05
2.29812e-05
2.41875e-05
3.6453e-05
3.80918e-05
2.7096e-05
3.83767e-05
2.74183e-05
2.37417e-05
3.81131e-05
3.81124e-05
2.4893e-05
2.33107e-05
2.33077e-05
-2.76991e-06
-1.2303e-06
3.27546e-06
-5.9348e-06
-1.3555e-06
-6.88923e-06
-2.83815e-06
-1.24793e-06
3.20651e-06
-5.93908e-06
1.28866e-06
6.55319e-06
6.55094e-06
5.10906e-07
7.128e-06
1.01577e-06
1.0143e-06
-1.1049e-06
-1.07391e-07
5.23295e-06
-2.71362e-07
3.73633e-06
3.01751e-07
7.92625e-07
-1.38308e-06
-6.88245e-06
-1.10085e-06
5.23293e-06
-1.106e-07
-2.7328e-07
3.75214e-06
7.92687e-07
3.09016e-07
-7.36146e-07
-7.40552e-07
-1.53589e-06
-9.17895e-07
-9.02719e-07
0.00109977
0.00109977
0.00109976
0.00109976
0.00109977
0.00109977
0.00109977
0.00111388
0.00109977
0.0010998
0.00110209
0.00109981
0.00111151
0.0010998
0.00110209
0.00111384
0.00109981
0.00109976
0.00111388
0.00111371
0.00109976
0.00109976
0.00111388
0.00111388
0.00109976
0.00111388
0.00109977
0.00109977
0.0010998
0.00110209
0.00109981
0.00109977
0.00109977
0.00110209
0.0010998
0.00109981
0.00111384
0.00111151
0.0010998
0.00110209
0.00111384
0.00111152
0.00109981
0.00111388
0.00109976
0.00111388
0.00109977
0.00111384
0.00111151
0.00110209
0.0010998
0.00111152
0.00111384
0.00109981
0.00111388
0.00109976
0.00111388
0.00109977
0.00109977
0.00109976
0.00109976
0.00109977
0.00110209
0.0010998
0.00109981
0.00111151
0.00110209
0.0010998
0.00111384
0.00109981
0.00109977
0.00109977
0.00109976
0.00111388
0.00109977
0.00111371
0.00109976
0.00109976
0.00111388
0.00111388
0.00109976
0.00111388
0.00109976
0.00111388
0.00109502
0.0010809
0.00109502
0.0010809
0.00109502
0.00109502
0.00108104
0.0010809
0.0010809
0.00106204
0.00107616
0.00106204
0.00107616
0.00107599
0.00106204
0.00106204
0.00107616
0.00107616
0.00108091
0.00109501
0.00109502
0.0010809
0.00108095
0.00109498
0.00109266
0.00108322
0.00109498
0.00108094
0.00108323
0.00108095
0.00109498
0.00109266
0.00108322
0.00109498
0.00108094
0.00108323
0.00107616
0.00106205
0.00107615
0.00106205
0.00107616
0.00106205
0.00107615
0.00106205
0.00107612
0.00107379
0.00106208
0.00106437
0.00107612
0.0010738
0.00106209
0.00107612
0.00107379
0.00106208
0.00106437
0.00107612
0.0010738
0.00106209
0.00109502
0.00109502
0.00108104
0.0010809
0.0010809
0.00109501
0.0010809
0.00106204
0.00107615
0.00107599
0.00106204
0.00106204
0.00107616
0.00107616
0.00106204
0.00107615
0.00108095
0.00109498
0.00109266
0.00108322
0.00109498
0.00108094
0.00108323
0.00108091
0.00109501
0.00109502
0.0010809
0.00108095
0.00109266
0.00109498
0.00108322
0.00109498
0.00108323
0.00108094
0.00107616
0.00106205
0.00107615
0.00106205
0.00107612
0.00107379
0.00106208
0.00106437
0.00107612
0.0010738
0.00106209
0.00107616
0.00106205
0.00107615
0.00106205
0.00107612
0.00107379
0.00106437
0.00106208
0.0010738
0.00107612
0.00106209
0.00108091
0.00109501
0.00109502
0.0010809
0.00108095
0.00109266
0.00109498
0.00108322
0.00109498
0.00108323
0.00108094
0.00108091
0.00109501
0.00109502
0.0010809
0.00107612
0.00107379
0.00106208
0.00106437
0.00107612
0.0010738
0.00106209
0.00107616
0.00106205
0.00107615
0.00106205
0.00107612
0.00107379
0.00106437
0.00106208
0.0010738
0.00107612
0.00106209
0.00107616
0.00106205
0.00107615
0.00106205
0.00109502
0.00109502
0.00108104
0.0010809
0.0010809
0.00109502
0.0010809
0.00106204
0.00107616
0.00107599
0.00106204
0.00106204
0.00107616
0.00107616
0.00106204
0.00107616
0.00108095
0.00109266
0.00109498
0.00108322
0.00109498
0.00108323
0.00108094
0.00108091
0.00109501
0.00109502
0.0010809
0.00108091
0.00109501
0.00109502
0.0010809
0.00107612
0.00107379
0.00106437
0.00106208
0.0010738
0.00107612
0.00106209
0.00107612
0.00107379
0.00106437
0.00106208
0.0010738
0.00107612
0.00106209
0.00107616
0.00106205
0.00107615
0.00106205
0.00107616
0.00106205
0.00107615
0.00106205
0.00109501
0.0010809
0.00109501
0.0010809
0.00107599
0.00106204
0.00106204
0.00107616
0.00107616
0.00106204
0.00107615
0.00106204
0.00107615
0.0010573
0.00104319
0.0010573
0.00104319
0.0010573
0.0010573
0.00104332
0.00104318
0.00104318
0.00102433
0.00103844
0.00102433
0.00103844
0.00103827
0.00102433
0.00102433
0.00103844
0.00103844
0.00104319
0.0010573
0.0010573
0.00104319
0.00104323
0.00105726
0.00105494
0.0010455
0.00105726
0.00104322
0.00104552
0.00104323
0.00105726
0.00105495
0.0010455
0.00105726
0.00104322
0.00104552
0.00103844
0.00102433
0.00103844
0.00102433
0.00103844
0.00102433
0.00103844
0.00102433
0.0010384
0.00103608
0.00102436
0.00102666
0.0010384
0.00103609
0.00102437
0.0010384
0.00103608
0.00102436
0.00102666
0.0010384
0.00103609
0.00102437
0.0010573
0.0010573
0.00104332
0.00104318
0.00104318
0.0010573
0.00104319
0.00102433
0.00103844
0.00103827
0.00102433
0.00102433
0.00103844
0.00103844
0.00102433
0.00103844
0.00104323
0.00105726
0.00105495
0.0010455
0.00105726
0.00104322
0.00104552
0.00104319
0.0010573
0.0010573
0.00104319
0.00104323
0.00105495
0.00105726
0.0010455
0.00105726
0.00104552
0.00104322
0.00103844
0.00102433
0.00103844
0.00102433
0.0010384
0.00103608
0.00102436
0.00102666
0.0010384
0.00103609
0.00102437
0.00103844
0.00102433
0.00103844
0.00102433
0.0010384
0.00103608
0.00102666
0.00102436
0.00103609
0.0010384
0.00102437
0.00104319
0.0010573
0.0010573
0.00104319
0.00104323
0.00105495
0.00105726
0.0010455
0.00105726
0.00104552
0.00104322
0.00104319
0.0010573
0.0010573
0.00104319
0.0010384
0.00103608
0.00102436
0.00102666
0.0010384
0.00103609
0.00102437
0.00103844
0.00102433
0.00103844
0.00102433
0.0010384
0.00103608
0.00102666
0.00102436
0.00103609
0.0010384
0.00102437
0.00103844
0.00102433
0.00103844
0.00102433
0.0010573
0.0010573
0.00104332
0.00104318
0.00104318
0.0010573
0.00104319
0.00102433
0.00103844
0.00103827
0.00102433
0.00102433
0.00103844
0.00103844
0.00102433
0.00103844
0.00104323
0.00105495
0.00105726
0.0010455
0.00105726
0.00104552
0.00104322
0.00104319
0.0010573
0.0010573
0.00104319
0.00104319
0.0010573
0.0010573
0.00104319
0.0010384
0.00103608
0.00102666
0.00102436
0.00103609
0.0010384
0.00102437
0.0010384
0.00103608
0.00102666
0.00102436
0.00103609
0.0010384
0.00102437
0.00103844
0.00102433
0.00103844
0.00102433
0.00103844
0.00102433
0.00103844
0.00102433
0.0010573
0.00104319
0.0010573
0.00104319
0.00103827
0.00102433
0.00102433
0.00103844
0.00103844
0.00102433
0.00103844
0.00102433
0.00103844
0.00101958
0.00100547
0.00101958
0.00100547
0.00101959
0.00101959
0.00100561
0.00100547
0.00100547
0.000986618
0.00100073
0.000986618
0.00100073
0.00100056
0.000986615
0.000986615
0.00100073
0.00100073
0.00100548
0.00101958
0.00101958
0.00100548
0.00100552
0.00101955
0.00101723
0.00100779
0.00101955
0.00100551
0.0010078
0.00100552
0.00101955
0.00101723
0.00100779
0.00101955
0.00100551
0.0010078
0.00100073
0.00098662
0.00100073
0.000986622
0.00100073
0.000986621
0.00100073
0.000986622
0.00100069
0.000998363
0.000986652
0.000988948
0.00100069
0.000998376
0.000986663
0.00100069
0.000998363
0.000986653
0.000988948
0.00100069
0.000998376
0.000986663
0.00101959
0.00101959
0.00100561
0.00100547
0.00100547
0.00101958
0.00100547
0.000986619
0.00100073
0.00100056
0.000986616
0.000986617
0.00100073
0.00100073
0.000986619
0.00100073
0.00100552
0.00101955
0.00101723
0.00100779
0.00101955
0.00100551
0.0010078
0.00100548
0.00101958
0.00101958
0.00100548
0.00100552
0.00101723
0.00101955
0.00100779
0.00101955
0.0010078
0.00100551
0.00100073
0.00098662
0.00100073
0.000986621
0.00100069
0.000998363
0.000986652
0.000988948
0.00100069
0.000998376
0.000986663