/*--------------------------------*- C++ -*----------------------------------*\
| =========                 |                                                 |
| \\      /  F ield         | OpenFOAM: The Open Source CFD Toolbox           |
|  \\    /   O peration     | Version:  v1912                                 |
|   \\  /    A nd           | Website:  www.openfoam.com                      |
|    \\/     M anipulation  |                                                 |
\*---------------------------------------------------------------------------*/
FoamFile
{
    version     2.0;
    format      ascii;
    class       surfaceScalarField;
    location    "60";
    object      phi;
}
// * * * * * * * * * * * * * * * * * * * * * * * * * * * * * * * * * * * * * //

dimensions      [0 3 -1 0 0 0 0];
oriented        oriented;


internalField   nonuniform List<scalar> 
165494
(
2.64165e-09
2.96501e-09
-0.00111566
-2.96265e-09
-3.08421e-09
0.00111566
-0.00111278
-1.27638e-06
-2.98853e-09
6.04533e-09
0.00111278
-3.03951e-07
1.28162e-06
3.0129e-07
9.72616e-07
-3.13807e-07
-9.71502e-07
3.07142e-07
-0.00111243
-1.27092e-06
-3.05344e-09
6.18899e-09
0.00111243
-3.04025e-07
1.27597e-06
3.0122e-07
9.72401e-07
-3.16539e-07
-9.71413e-07
3.09904e-07
-0.000272575
1.30549e-06
1.27102e-06
-2.52828e-07
-2.58162e-07
0.00027051
2.95287e-09
3.19475e-09
-0.00111566
-3.0521e-09
-3.09414e-09
0.00111566
-0.00111278
-1.2764e-06
-3.26783e-09
6.23109e-09
0.00111278
-3.04011e-07
1.28155e-06
3.01169e-07
9.72695e-07
-3.137e-07
-9.7139e-07
3.07206e-07
-0.00111243
-1.27087e-06
-3.14628e-09
6.25093e-09
0.00111242
-3.03992e-07
1.27597e-06
3.01211e-07
9.72476e-07
-3.16462e-07
-9.71295e-07
3.09942e-07
-0.000272575
1.30551e-06
1.271e-06
-2.52819e-07
-2.58175e-07
0.000270509
2.97911e-09
3.21833e-09
-0.00111566
-3.03953e-09
-3.09558e-09
0.00111566
-0.00111278
-1.27634e-06
-3.56942e-09
6.14906e-09
0.00111278
-3.03928e-07
1.28158e-06
3.01237e-07
9.72773e-07
-3.13606e-07
-9.71311e-07
3.07297e-07
-0.00111242
-1.27087e-06
-3.33889e-09
6.33643e-09
0.00111242
-3.03995e-07
1.27594e-06
3.01156e-07
9.72544e-07
-3.16375e-07
-9.71214e-07
3.10016e-07
-0.000272575
1.30543e-06
1.27094e-06
-2.52754e-07
-2.58077e-07
0.000270509
3.19177e-09
3.48095e-09
-0.00111566
-3.21054e-09
-3.20972e-09
0.00111566
-0.00111277
-1.2764e-06
-3.5128e-09
6.20869e-09
0.00111277
-3.04012e-07
1.28153e-06
3.01169e-07
9.72793e-07
-3.13548e-07
-9.71292e-07
3.07344e-07
-0.00111242
-1.27084e-06
-3.54803e-09
6.20142e-09
0.00111242
-3.03931e-07
1.27597e-06
3.01243e-07
9.72585e-07
-3.16284e-07
-9.71174e-07
3.10103e-07
-0.000272574
1.30546e-06
1.27097e-06
-2.52773e-07
-2.5813e-07
0.000270509
3.13091e-09
3.51639e-09
-0.00111566
-3.23819e-09
-3.1529e-09
0.00111566
-0.00111277
-1.27639e-06
-3.45439e-09
6.22921e-09
0.00111277
-3.04004e-07
1.28154e-06
3.01145e-07
9.72792e-07
-3.13542e-07
-9.71315e-07
3.07356e-07
-0.00111242
-1.27083e-06
-3.72958e-09
6.11619e-09
0.00111242
-3.03932e-07
1.276e-06
3.01263e-07
9.72662e-07
-3.16235e-07
-9.71118e-07
3.10162e-07
-0.000272574
1.30548e-06
1.27103e-06
-2.52834e-07
-2.58149e-07
0.000270508
3.12516e-09
3.35929e-09
-0.00111566
-3.12317e-09
-3.12774e-09
0.00111565
-0.00111277
-1.27638e-06
-3.61778e-09
6.20226e-09
0.00111277
-3.04007e-07
1.28158e-06
3.01194e-07
9.72891e-07
-3.13519e-07
-9.71272e-07
3.07418e-07
-0.00111242
-1.27089e-06
-3.5251e-09
6.26325e-09
0.00111242
-3.04062e-07
1.27596e-06
3.0117e-07
9.72624e-07
-3.1631e-07
-9.71197e-07
3.10132e-07
-0.000272573
1.3055e-06
1.27102e-06
-2.52831e-07
-2.58161e-07
0.000270508
3.08265e-09
3.38376e-09
-0.00111565
-3.18204e-09
-3.115e-09
0.00111565
-0.00111277
-1.27641e-06
-3.33174e-09
6.27602e-09
0.00111277
-3.04063e-07
1.28158e-06
3.01184e-07
9.72741e-07
-3.13634e-07
-9.71454e-07
3.07332e-07
-0.00111242
-1.27087e-06
-3.50171e-09
6.2094e-09
0.00111242
-3.04022e-07
1.27602e-06
3.0122e-07
9.72579e-07
-3.16307e-07
-9.71214e-07
3.1014e-07
-0.000272573
1.30548e-06
1.27105e-06
-2.52857e-07
-2.58144e-07
0.000270507
3.02188e-09
3.2825e-09
-0.00111565
-3.13299e-09
-3.1473e-09
0.00111565
-0.00111277
-1.27647e-06
-3.35236e-09
6.28537e-09
0.00111277
-3.04107e-07
1.28158e-06
3.01191e-07
9.72839e-07
-3.13662e-07
-9.71407e-07
3.07359e-07
-0.00111242
-1.27095e-06
-3.24495e-09
6.34667e-09
0.00111242
-3.04111e-07
1.27599e-06
3.01197e-07
9.72614e-07
-3.16427e-07
-9.71327e-07
3.10103e-07
-0.000272572
1.30556e-06
1.27107e-06
-2.52873e-07
-2.58216e-07
0.000270507
2.95659e-09
3.37815e-09
-0.00111565
-3.19187e-09
-3.09541e-09
0.00111565
-0.00111277
-1.27647e-06
-3.13639e-09
6.23346e-09
0.00111277
-3.04097e-07
1.28164e-06
3.01274e-07
9.72783e-07
-3.13758e-07
-9.71518e-07
3.0732e-07
-0.00111242
-1.27092e-06
-3.3319e-09
6.15865e-09
0.00111242
-3.0406e-07
1.27607e-06
3.01311e-07
9.7265e-07
-3.16425e-07
-9.7132e-07
3.10147e-07
-0.000272572
1.3056e-06
1.27114e-06
-2.52924e-07
-2.58242e-07
0.000270506
2.81898e-09
3.2208e-09
-0.00111565
-3.13641e-09
-3.02902e-09
0.00111565
-0.00111277
-1.27654e-06
-2.57528e-09
6.33803e-09
0.00111277
-3.04237e-07
1.28162e-06
3.01176e-07
9.72606e-07
-3.13998e-07
-9.71747e-07
3.07118e-07
-0.00111242
-1.27099e-06
-2.97151e-09
6.22645e-09
0.00111242
-3.04176e-07
1.27605e-06
3.01237e-07
9.72531e-07
-3.16623e-07
-9.71505e-07
3.10004e-07
-0.000272572
1.30566e-06
1.27124e-06
-2.53059e-07
-2.58324e-07
0.000270506
1.30604e-09
1.52027e-09
-0.00111566
-2.20872e-09
-2.25677e-09
0.00111566
-0.00111277
-1.27685e-06
-1.80413e-09
6.67206e-09
0.00111277
-3.04522e-07
1.28138e-06
3.00951e-07
9.72303e-07
-3.14467e-07
-9.72157e-07
3.06742e-07
-0.00111242
-1.27132e-06
-1.73645e-09
6.78989e-09
0.00111242
-3.04511e-07
1.27577e-06
3.00956e-07
9.72105e-07
-3.17146e-07
-9.71993e-07
3.09519e-07
-0.000272573
1.30597e-06
1.27148e-06
-2.53379e-07
-2.58729e-07
0.000270507
2.31904e-09
2.51106e-09
-0.00111566
-2.69602e-09
-2.76882e-09
0.00111566
-0.00111278
-1.27672e-06
-2.81979e-09
6.50216e-09
0.00111278
-3.04372e-07
1.28154e-06
3.01131e-07
9.72609e-07
-3.14167e-07
-9.71866e-07
3.07068e-07
-0.00111243
-1.27118e-06
-2.63242e-09
6.49208e-09
0.00111243
-3.04337e-07
1.27597e-06
3.01163e-07
9.72359e-07
-3.16986e-07
-9.71809e-07
3.09758e-07
-0.000272575
1.30583e-06
1.27127e-06
-2.53147e-07
-2.58558e-07
0.000270509
2.81597e-09
2.86216e-09
-0.00111566
-2.8287e-09
-2.98252e-09
0.00111566
-0.00111278
-1.27653e-06
-3.51669e-09
6.21794e-09
0.00111278
-3.0412e-07
1.28169e-06
3.0134e-07
9.72866e-07
-3.13845e-07
-9.7159e-07
3.07369e-07
-0.00111243
-1.27108e-06
-3.21218e-09
6.51466e-09
0.00111243
-3.04206e-07
1.27603e-06
3.01267e-07
9.72593e-07
-3.16669e-07
-9.71534e-07
3.10044e-07
-0.000272576
1.30569e-06
1.27117e-06
-2.52978e-07
-2.58354e-07
0.00027051
3.59031e-09
3.67287e-09
-0.00111566
-3.26581e-09
-3.39215e-09
0.00111566
-0.00111278
-1.27635e-06
-4.05738e-09
5.95975e-09
0.00111278
-3.03971e-07
1.28183e-06
3.01446e-07
9.73046e-07
-3.13605e-07
-9.71348e-07
3.0755e-07
-0.00111243
-1.27086e-06
-3.98325e-09
6.11885e-09
0.00111243
-3.03984e-07
1.2762e-06
3.01432e-07
9.72845e-07
-3.1636e-07
-9.71241e-07
3.10307e-07
-0.000272576
1.30544e-06
1.27093e-06
-2.52695e-07
-2.58065e-07
0.00027051
3.47538e-09
3.79144e-09
-0.00111566
-3.43262e-09
-3.37678e-09
0.00111566
-0.00111278
-1.27638e-06
-3.63425e-09
5.97505e-09
0.00111278
-3.03998e-07
1.28178e-06
3.01412e-07
9.72917e-07
-3.13717e-07
-9.71457e-07
3.07426e-07
-0.00111243
-1.27085e-06
-3.81647e-09
5.92702e-09
0.00111243
-3.03973e-07
1.2762e-06
3.01453e-07
9.72774e-07
-3.16398e-07
-9.71279e-07
3.10247e-07
-0.000272575
1.30552e-06
1.27107e-06
-2.5285e-07
-2.58161e-07
0.00027051
3.09327e-09
3.42755e-09
-0.00111566
-3.23138e-09
-3.1744e-09
0.00111566
-0.00111278
-1.27649e-06
-3.37536e-09
6.14778e-09
0.00111278
-3.04132e-07
1.28168e-06
3.01303e-07
9.72824e-07
-3.13784e-07
-9.71526e-07
3.07326e-07
-0.00111243
-1.27095e-06
-3.49461e-09
6.10578e-09
0.00111243
-3.04107e-07
1.2761e-06
3.01332e-07
9.72661e-07
-3.16486e-07
-9.71366e-07
3.10122e-07
-0.000272575
1.3056e-06
1.27114e-06
-2.52937e-07
-2.58255e-07
0.00027051
3.03466e-09
3.31056e-09
-0.00111566
-3.14451e-09
-3.13614e-09
0.00111566
-0.00111278
-1.27648e-06
-3.40361e-09
6.18219e-09
0.00111278
-3.04133e-07
1.28164e-06
3.01287e-07
9.72718e-07
-3.13636e-07
-9.71439e-07
3.07152e-07
-0.00111243
-1.27095e-06
-3.46073e-09
6.19997e-09
0.00111243
-3.04125e-07
1.27604e-06
3.01302e-07
9.72542e-07
-3.16355e-07
-9.71294e-07
3.09934e-07
-0.000272575
1.30558e-06
1.27111e-06
-2.52895e-07
-2.58226e-07
0.00027051
3.11154e-09
3.35191e-09
-0.00111566
-3.15599e-09
-3.1699e-09
0.00111566
-0.00111278
-1.27637e-06
-3.39214e-09
6.16901e-09
0.00111278
-3.03975e-07
1.28153e-06
3.01108e-07
9.72639e-07
-3.13453e-07
-9.71364e-07
3.06984e-07
-0.00111243
-1.27085e-06
-3.4462e-09
6.19585e-09
0.00111243
-3.03957e-07
1.27594e-06
3.0113e-07
9.7246e-07
-3.16175e-07
-9.71222e-07
3.09762e-07
-0.000272575
1.30548e-06
1.27101e-06
-2.52679e-07
-2.58012e-07
0.000270509
2.98928e-09
3.23635e-09
-0.00111566
-3.09984e-09
-3.10959e-09
0.00111566
-0.00111278
-1.27649e-06
-3.31397e-09
6.19389e-09
0.00111278
-3.04135e-07
1.28163e-06
3.01249e-07
9.72706e-07
-3.13553e-07
-9.71443e-07
3.0706e-07
-0.00111243
-1.27096e-06
-3.37593e-09
6.20478e-09
0.00111243
-3.04105e-07
1.27604e-06
3.01287e-07
9.72525e-07
-3.16272e-07
-9.71301e-07
3.09839e-07
-0.000272575
1.30559e-06
1.27112e-06
-2.52842e-07
-2.58178e-07
0.000270509
2.86468e-09
3.11173e-09
-0.00111566
-3.05034e-09
-3.06568e-09
0.00111566
-0.00111278
-1.27627e-06
-3.23686e-09
6.16391e-09
0.00111278
-3.03844e-07
1.28143e-06
3.00971e-07
9.72431e-07
-3.13089e-07
-9.71189e-07
3.06529e-07
-0.00111243
-1.27076e-06
-3.23387e-09
6.22846e-09
0.00111243
-3.0385e-07
1.27582e-06
3.00977e-07
9.72237e-07
-3.15831e-07
-9.71061e-07
3.09288e-07
-0.000272575
1.30538e-06
1.2709e-06
-2.52518e-07
-2.57856e-07
0.000270509
2.72575e-09
2.98269e-09
-0.00111566
-3.01348e-09
-3.01672e-09
0.00111566
-0.00111278
-1.27613e-06
-3.0591e-09
6.18467e-09
0.00111278
-3.03652e-07
1.28127e-06
3.00755e-07
9.72036e-07
-3.12297e-07
-9.70858e-07
3.05688e-07
-0.00111243
-1.2706e-06
-3.10868e-09
6.20551e-09
0.00111243
-3.03631e-07
1.27567e-06
3.0077e-07
9.71859e-07
-3.15012e-07
-9.70713e-07
3.08464e-07
-0.000272576
1.30525e-06
1.27077e-06
-2.5218e-07
-2.57516e-07
0.000270509
2.40508e-09
2.65338e-09
-0.00111566
-2.90065e-09
-2.91368e-09
0.00111566
-0.00111278
-1.27593e-06
-2.71136e-09
6.25743e-09
0.00111278
-3.0327e-07
1.28101e-06
3.00315e-07
9.71266e-07
-3.11171e-07
-9.70184e-07
3.04462e-07
-0.00111243
-1.27041e-06
-2.77514e-09
6.26192e-09
0.00111243
-3.0321e-07
1.27543e-06
3.00363e-07
9.7109e-07
-3.13889e-07
-9.70037e-07
3.07242e-07
-0.000272576
1.30504e-06
1.27055e-06
-2.51706e-07
-2.57049e-07
0.000270509
1.68582e-09
1.93619e-09
-0.00111566
-2.6645e-09
-2.68454e-09
0.00111566
-0.00111278
-1.27558e-06
-2.02452e-09
6.37202e-09
0.00111278
-3.02682e-07
1.28059e-06
2.9964e-07
9.70014e-07
-3.0932e-07
-9.6911e-07
3.02412e-07
-0.00111243
-1.27008e-06
-2.01235e-09
6.4443e-09
0.00111243
-3.02673e-07
1.27498e-06
2.9963e-07
9.69832e-07
-3.12051e-07
-9.68966e-07
3.05169e-07
-0.000272576
1.30473e-06
1.27024e-06
-2.51004e-07
-2.56349e-07
0.000270509
1.34258e-10
3.82276e-10
-0.00111566
-2.26165e-09
-2.2525e-09
0.00111566
-0.00111278
-1.27498e-06
-5.35261e-10
6.81884e-09
0.00111278
-3.01619e-07
1.27976e-06
2.98304e-07
9.67845e-07
-3.06268e-07
-9.67302e-07
2.98949e-07
-0.00111243
-1.26945e-06
-6.15301e-10
6.82196e-09
0.00111243
-3.0156e-07
1.27418e-06
2.98334e-07
9.67667e-07
-3.08979e-07
-9.67153e-07
3.01723e-07
-0.000272577
1.30405e-06
1.26957e-06
-2.49648e-07
-2.54989e-07
0.000270508
-1.77005e-09
-1.59787e-09
-0.00111566
-1.8085e-09
-1.79092e-09
0.00111566
-0.00111278
-1.27396e-06
1.57203e-09
7.69826e-09
0.00111278
-2.9982e-07
1.27837e-06
2.96057e-07
9.64132e-07
-3.01135e-07
-9.64219e-07
2.9291e-07
-0.00111243
-1.26844e-06
1.53688e-09
7.73068e-09
0.00111243
-2.99785e-07
1.27279e-06
2.96034e-07
9.6395e-07
-3.03845e-07
-9.64072e-07
2.95687e-07
-0.000272578
1.30309e-06
1.26861e-06
-2.47564e-07
-2.52899e-07
0.000270507
-5.62853e-09
-5.43197e-09
-0.00111566
-1.17611e-09
-1.14403e-09
0.00111567
-0.00111278
-1.27205e-06
5.39816e-09
9.66187e-09
0.00111278
-2.96479e-07
1.27569e-06
2.91769e-07
9.57386e-07
-2.92509e-07
-9.58751e-07
2.82639e-07
-0.00111243
-1.26653e-06
5.36397e-09
9.68375e-09
0.00111243
-2.96439e-07
1.27011e-06
2.91759e-07
9.57195e-07
-2.95222e-07
-9.58607e-07
2.85415e-07
-0.000272581
1.30116e-06
1.26667e-06
-2.43797e-07
-2.49124e-07
0.000270506
-1.27408e-08
-1.25308e-08
-0.00111565
-5.89602e-10
-5.69594e-10
0.00111568
-0.00111278
-1.26832e-06
1.24821e-08
1.37644e-08
0.00111278
-2.90036e-07
1.27018e-06
2.83263e-07
9.4475e-07
-2.77415e-07
-9.48808e-07
2.64631e-07
-0.00111243
-1.26279e-06
1.24387e-08
1.37557e-08
0.00111243
-2.9003e-07
1.26461e-06
2.83297e-07
9.44566e-07
-2.80149e-07
-9.4862e-07
2.67421e-07
-0.000272585
1.29741e-06
1.26291e-06
-2.37522e-07
-2.42846e-07
0.000270505
-9.18977e-09
-8.92413e-09
-0.00111565
-6.16646e-09
-1.11952e-08
0.00111569
-0.00111279
-1.25895e-06
1.41308e-08
1.0951e-08
0.00111279
-2.75731e-07
1.25965e-06
2.70537e-07
9.26895e-07
-2.54939e-07
-9.33572e-07
2.36743e-07
-0.00111245
-1.25066e-06
8.82269e-09
1.61546e-08
0.00111245
-2.7565e-07
1.25131e-06
2.67727e-07
9.24043e-07
-2.54852e-07
-9.30595e-07
2.39596e-07
-0.000272595
1.29079e-06
1.25354e-06
-2.22788e-07
-2.28054e-07
0.000270502
8.21389e-07
8.28722e-07
-0.00111553
-7.22076e-07
-7.11714e-07
0.00111531
-0.00111307
-1.15572e-06
-8.22831e-07
-3.61346e-07
0.00111341
-1.80233e-07
1.40619e-06
3.47863e-07
1.0602e-06
-1.33457e-07
-8.18646e-07
3.16755e-07
-0.00111274
-1.14734e-06
-8.33839e-07
-3.72486e-07
0.0011131
-1.80106e-07
1.40078e-06
3.50831e-07
1.05713e-06
-1.39095e-07
-8.15707e-07
3.19636e-07
-0.00027267
1.19034e-06
1.14749e-06
-1.3176e-07
-1.34304e-07
0.000270598
5.07848e-06
5.07177e-06
-0.00110159
-1.08495e-05
-1.07501e-05
0.000267344
0.00027098
0.00026992
0.000269921
4.11601e-06
6.50992e-06
6.80637e-06
4.11995e-06
6.51067e-06
6.80984e-06
-0.000275284
5.21542e-06
-5.06907e-06
5.7361e-06
-3.29243e-06
0.000272694
-0.00027526
-5.07129e-06
5.22082e-06
-3.30042e-06
5.73318e-06
0.000272678
-0.000273257
-5.21233e-06
-5.22362e-06
5.81041e-06
5.79826e-06
0.000272084
-1.31607e-06
-1.27889e-06
0.000272591
-0.000270515
2.55405e-07
2.63242e-07
0.00111197
-8.79164e-09
6.4299e-09
-1.31104e-06
3.06712e-07
-3.09757e-07
-9.71645e-07
3.06942e-07
-3.13877e-07
9.72372e-07
1.32168e-06
0.00111243
-2.47115e-09
-0.00111243
6.52306e-09
-1.31663e-06
3.09642e-07
-3.12578e-07
-9.77261e-07
3.09863e-07
-3.16802e-07
9.78274e-07
-1.2816e-06
0.000272621
-0.000270537
2.58191e-07
2.60484e-07
0.00111305
2.67409e-09
9.50544e-10
-1.27373e-06
3.04236e-07
-3.06867e-07
-9.74357e-07
3.09964e-07
-3.16732e-07
9.7544e-07
1.31619e-06
0.00111209
-2.84329e-09
6.32972e-09
-1.31102e-06
3.09654e-07
-3.12545e-07
-9.74437e-07
3.09871e-07
-3.16664e-07
9.75289e-07
-2.83692e-09
-0.00111278
5.99369e-09
-1.27642e-06
3.01263e-07
-3.03993e-07
-9.71512e-07
3.07116e-07
9.72595e-07
-3.13835e-07
1.31058e-06
0.00111188
-2.62825e-09
-0.00111188
6.45216e-09
-1.3055e-06
3.03879e-07
-3.06813e-07
-9.74305e-07
3.06978e-07
-3.13827e-07
9.75241e-07
-1.27591e-06
0.00027257
-0.000270496
2.5554e-07
2.63041e-07
-2.8329e-09
6.11898e-09
-1.27094e-06
3.01169e-07
-3.04072e-07
-9.71432e-07
3.09818e-07
9.72357e-07
-3.16615e-07
1.27608e-06
0.00111295
2.79102e-09
-0.00111296
1.14004e-08
-1.27103e-06
3.01274e-07
-3.04107e-07
-9.71587e-07
3.09983e-07
-3.16689e-07
9.7275e-07
-0.00027051
2.57866e-07
2.63269e-07
1.311e-06
1.27372e-06
-2.50228e-07
-2.58133e-07
0.000270515
-1.31608e-06
-1.27887e-06
0.000272591
-0.000270515
2.55369e-07
2.63275e-07
6.54999e-09
0.00111197
-3.097e-07
1.31612e-06
3.06756e-07
9.72459e-07
-3.13844e-07
-9.7157e-07
3.06987e-07
-1.31661e-06
-2.66148e-09
1.16499e-08
0.00111242
-3.12555e-07
1.32169e-06
3.0966e-07
9.78301e-07
-3.16787e-07
-9.77244e-07
3.09887e-07
0.00111197
-2.93626e-09
-0.00111197
6.51819e-09
-1.31098e-06
3.0675e-07
-3.09646e-07
-9.7143e-07
3.07028e-07
-3.13738e-07
9.72517e-07
1.32166e-06
0.00111242
-2.76494e-09
-0.00111242
6.47603e-09
-1.3166e-06
3.09591e-07
-3.12566e-07
-9.77199e-07
3.09937e-07
-3.167e-07
9.78295e-07
-2.53031e-07
-2.55352e-07
0.000270537
-1.28156e-06
0.000272621
-0.000270536
2.58175e-07
2.60472e-07
5.96095e-09
0.00111305
-3.06851e-07
1.27886e-06
3.04193e-07
9.75462e-07
-3.16708e-07
-9.74317e-07
3.0996e-07
-1.31103e-06
-2.90952e-09
6.35946e-09
0.00111209
-3.12501e-07
1.31619e-06
3.09682e-07
9.75285e-07
-3.16627e-07
-9.7432e-07
3.09901e-07
0.00111305
-3.16897e-09
-0.00111305
6.16111e-09
-1.27372e-06
3.04172e-07
-3.06884e-07
-9.74227e-07
3.10023e-07
-3.16647e-07
9.75551e-07
1.31614e-06
0.00111209
-2.82196e-09
-0.00111209
6.48716e-09
-1.31105e-06
3.09624e-07
-3.12524e-07
-9.74273e-07
3.09902e-07
-3.16604e-07
9.75308e-07
2.66829e-09
6.46901e-09
0.00111188
-3.06784e-07
1.31057e-06
3.03895e-07
9.72525e-07
-3.13804e-07
3.07007e-07
-9.74268e-07
-3.23606e-09
-0.00111278
6.22135e-09
-1.27639e-06
3.01194e-07
-3.03987e-07
-9.71399e-07
3.07203e-07
9.72686e-07
-3.13715e-07
1.31054e-06
0.00111188
-2.928e-09
-0.00111188
6.51204e-09
-1.30549e-06
3.03863e-07
-3.06762e-07
-9.71471e-07
3.0706e-07
-3.13712e-07
9.72526e-07
-2.50472e-07
-2.57888e-07
0.000270496
-1.27598e-06
0.00027257
-0.000270496
2.55566e-07
2.63025e-07
-2.87292e-09
6.2331e-09
0.00111295
-3.04086e-07
1.27608e-06
3.01287e-07
9.72775e-07
-3.1667e-07
3.10007e-07
-9.71595e-07
-3.08228e-09
-0.00111243
6.27441e-09
-1.27086e-06
3.0122e-07
-3.03985e-07
-9.71256e-07
3.09921e-07
9.72517e-07
-3.16494e-07
1.27608e-06
0.00111295
-3.10998e-09
-0.00111295
6.2e-09
-1.27099e-06
3.01274e-07
-3.04054e-07
-9.71529e-07
3.10048e-07
-3.16601e-07
9.72826e-07
-0.000270509
2.57874e-07
2.63253e-07
1.31098e-06
1.27371e-06
-2.50251e-07
-2.58106e-07
0.000270515
-1.31605e-06
-1.27884e-06
0.000272591
-0.000270515
2.55349e-07
2.63263e-07
6.48971e-09
0.00111197
-3.09639e-07
1.31607e-06
3.06746e-07
9.72516e-07
-3.13744e-07
-9.71433e-07
3.07022e-07
-1.31661e-06
-2.77633e-09
6.49946e-09
0.00111242
-3.12588e-07
1.32165e-06
3.09568e-07
9.78293e-07
-3.16685e-07
-9.77201e-07
3.09943e-07
0.00111197
-3.05753e-09
-0.00111197
6.54537e-09
-1.31098e-06
3.06698e-07
-3.09653e-07
-9.71352e-07
3.07082e-07
-3.13674e-07
9.72582e-07
1.3217e-06
0.00111242
-2.93318e-09
-0.00111242
6.38715e-09
-1.31655e-06
3.09644e-07
-3.12523e-07
-9.77158e-07
3.09971e-07
-3.1664e-07
9.78325e-07
-2.53038e-07
-2.55366e-07
0.000270536
-1.28159e-06
0.000272621
-0.000270536
2.5822e-07
2.6052e-07
6.13951e-09
0.00111305
-3.06867e-07
1.27886e-06
3.04171e-07
9.75571e-07
-3.16637e-07
-9.74196e-07
3.10036e-07
-1.31106e-06
-2.87599e-09
6.4812e-09
0.00111209
-3.12537e-07
1.31613e-06
3.09613e-07
9.75328e-07
-3.16594e-07
-9.74252e-07
3.09915e-07
0.00111305
-3.29114e-09
-0.00111305
6.13956e-09
-1.27371e-06
3.04118e-07
-3.06878e-07
-9.74146e-07
3.10092e-07
-3.16557e-07
9.75607e-07
1.31613e-06
0.00111208
-2.9759e-09
-0.00111209
6.42339e-09
-1.31104e-06
3.09622e-07
-3.12497e-07
-9.74193e-07
3.09974e-07
-3.16517e-07
9.75368e-07
-2.91896e-09
6.54151e-09
0.00111188
-3.06791e-07
1.31052e-06
3.03834e-07
9.72535e-07
-3.13705e-07
3.0706e-07
-9.71467e-07
-3.50601e-09
-0.00111278
6.16534e-09
-1.27635e-06
3.0123e-07
-3.03959e-07
-9.71327e-07
3.0727e-07
9.72754e-07
-3.13639e-07
1.31058e-06
0.00111188
-3.12903e-09
-0.00111188
6.44011e-09
-1.30545e-06
3.03929e-07
-3.06715e-07
-9.71396e-07
3.07094e-07
-3.1366e-07
9.72592e-07
-2.50458e-07
-2.57912e-07
0.000270496
-1.27597e-06
0.00027257
-0.000270496
2.5557e-07
2.63037e-07
-3.12364e-09
6.22003e-09
0.00111295
-3.04076e-07
1.27606e-06
3.01249e-07
9.72839e-07
-3.16591e-07
3.10049e-07
-9.71513e-07
-3.35943e-09
-0.00111242
6.26667e-09
-1.27085e-06
3.01219e-07
-3.03953e-07
-9.71161e-07
3.09989e-07
9.72591e-07
-3.16409e-07
1.27611e-06
0.00111295
-3.37324e-09
-0.00111295
6.09316e-09
-1.27097e-06
3.01344e-07
-3.04002e-07
-9.71446e-07
3.10103e-07
-3.16528e-07
9.7289e-07
-0.000270509
2.57906e-07
2.63324e-07
1.311e-06
1.27374e-06
-2.50278e-07
-2.58124e-07
0.000270515
-1.31607e-06
-1.27885e-06
0.000272591
-0.000270515
2.55386e-07
2.6329e-07
6.61357e-09
0.00111197
-3.09701e-07
1.31602e-06
3.06637e-07
9.72574e-07
-3.13675e-07
-9.71364e-07
3.07081e-07
-1.31654e-06
-2.9716e-09
6.32719e-09
0.00111242
-3.12484e-07
1.3217e-06
3.09657e-07
9.78347e-07
-3.16619e-07
-9.77139e-07
3.09993e-07
0.00111197
-3.21943e-09
-0.00111197
6.42834e-09
-1.31097e-06
3.06748e-07
-3.09637e-07
-9.71303e-07
3.07171e-07
-3.13579e-07
9.72622e-07
1.32164e-06
0.00111242
-2.90041e-09
-0.00111242
6.43766e-09
-1.31659e-06
3.09553e-07
-3.12571e-07
-9.77108e-07
3.1002e-07
-3.16575e-07
9.78368e-07
-2.52975e-07
-2.55293e-07
0.000270536
-1.28152e-06
0.00027262
-0.000270536
2.58166e-07
2.60471e-07
6.21089e-09
0.00111305
-3.06928e-07
1.2788e-06
3.04056e-07
9.75608e-07
-3.16567e-07
-9.74144e-07
3.10085e-07
-1.31106e-06
-2.92289e-09
6.47758e-09
0.00111208
-3.12539e-07
1.3161e-06
3.0956e-07
9.75367e-07
-3.16517e-07
-9.74197e-07
3.09974e-07
0.00111305
-3.46255e-09
-0.00111305
6.07504e-09
-1.27371e-06
3.04165e-07
-3.06862e-07
-9.74099e-07
3.1017e-07
-3.16479e-07
9.75652e-07
1.31612e-06
0.00111208
-3.04127e-09
-0.00111208
6.4103e-09
-1.31106e-06
3.0961e-07
-3.12537e-07
-9.74165e-07
3.10031e-07
-3.16458e-07
9.75396e-07
-3.18976e-09
6.41007e-09
0.00111188
-3.06674e-07
1.31057e-06
3.03924e-07
9.72604e-07
-3.13638e-07
3.07114e-07
-9.71387e-07
-3.50258e-09
-0.00111277
6.25032e-09
-1.27639e-06
3.01137e-07
-3.04015e-07
-9.71293e-07
3.07331e-07
9.72786e-07
-3.13563e-07
1.31055e-06
0.00111188
-3.19634e-09
-0.00111188
6.39552e-09
-1.30547e-06
3.03872e-07
-3.06746e-07
-9.71351e-07
3.07174e-07
-3.13566e-07
9.72633e-07
-2.50454e-07
-2.57899e-07
0.000270496
-1.27596e-06
0.000272569
-0.000270496
2.5557e-07
2.63039e-07
-3.38423e-09
6.0308e-09
0.00111295
-3.03959e-07
1.27611e-06
3.01338e-07
9.72896e-07
-3.16504e-07
3.10121e-07
-9.71442e-07
-3.49336e-09
-0.00111242
6.24795e-09
-1.27086e-06
3.01216e-07
-3.03985e-07
-9.71121e-07
3.10065e-07
9.72627e-07
-3.16328e-07
1.27608e-06
0.00111295
-3.30337e-09
-0.00111295
6.05597e-09
-1.27097e-06
3.01263e-07
-3.04047e-07
-9.71413e-07
3.10167e-07
-3.16442e-07
9.7292e-07
-0.000270509
2.579e-07
2.63276e-07
1.31095e-06
1.27369e-06
-2.50215e-07
-2.58064e-07
0.000270514
-1.31606e-06
-1.27881e-06
0.00027259
-0.000270514
2.55338e-07
2.63295e-07
6.39597e-09
0.00111197
-3.09593e-07
1.31607e-06
3.06751e-07
9.72614e-07
-3.13569e-07
-9.7132e-07
3.07181e-07
-1.31659e-06
-2.93371e-09
6.41401e-09
0.00111242
-3.12572e-07
1.32164e-06
3.09581e-07
9.7838e-07
-3.16561e-07
-9.77101e-07
3.1004e-07
0.00111197
-3.16719e-09
-0.00111197
6.42794e-09
-1.31097e-06
3.06705e-07
-3.09665e-07
-9.71301e-07
3.07187e-07
-3.13559e-07
9.7264e-07
1.32166e-06
0.00111242
-2.97657e-09
-0.00111242
6.41673e-09
-1.31656e-06
3.09601e-07
-3.12504e-07
-9.77106e-07
3.10052e-07
-3.16544e-07
9.78384e-07
-2.53036e-07
-2.55352e-07
0.000270536
-1.28156e-06
0.00027262
-0.000270535
2.58217e-07
2.60514e-07
6.06931e-09
0.00111305
-3.06822e-07
1.27885e-06
3.04161e-07
9.75663e-07
-3.16465e-07
-9.74091e-07
3.10185e-07
-1.31104e-06
-3.08182e-09
6.38458e-09
0.00111208
-3.12487e-07
1.31613e-06
3.09633e-07
9.75406e-07
-3.16442e-07
-9.74159e-07
3.10045e-07
0.00111305
-3.51313e-09
-0.00111305
6.13458e-09
-1.27374e-06
3.04105e-07
-3.06903e-07
-9.74074e-07
3.1022e-07
-3.16424e-07
9.7569e-07
1.31614e-06
0.00111208
-3.10541e-09
-0.00111208
6.34448e-09
-1.31104e-06
3.09624e-07
-3.12516e-07
-9.74147e-07
3.10067e-07
-3.1642e-07
9.75423e-07
-3.18568e-09
6.37217e-09
0.00111187
-3.06724e-07
1.31055e-06
3.03891e-07
9.72628e-07
-3.13567e-07
3.07174e-07
-9.71362e-07
-3.53801e-09
-0.00111277
6.15375e-09
-1.27636e-06
3.01201e-07
-3.03934e-07
-9.71306e-07
3.07361e-07
9.72789e-07
-3.13537e-07
1.31054e-06
0.00111187
-3.08627e-09
-0.00111187
6.4255e-09
-1.30548e-06
3.03851e-07
-3.06748e-07
-9.71374e-07
3.07183e-07
-3.13561e-07
9.72625e-07
-2.50425e-07
-2.57871e-07
0.000270496
-1.27598e-06
0.000272569
-0.000270495
2.55596e-07
2.63065e-07
-3.28908e-09
6.05789e-09
0.00111295
-3.04034e-07
1.27607e-06
3.01271e-07
9.72926e-07
-3.16438e-07
3.10171e-07
-9.71412e-07
-3.67143e-09
-0.00111242
6.15493e-09
-1.27084e-06
3.01234e-07
-3.03959e-07
-9.7107e-07
3.10132e-07
9.72698e-07
-3.16263e-07
1.27603e-06
0.00111295
-3.295e-09
-0.00111295
6.22631e-09
-1.27101e-06
3.01205e-07
-3.04084e-07
-9.71396e-07
3.10199e-07
-3.16413e-07
9.72953e-07
-0.000270509
2.57866e-07
2.63279e-07
1.31096e-06
1.27373e-06
-2.50276e-07
-2.58075e-07
0.000270514
-1.31605e-06
-1.27882e-06
0.00027259
-0.000270514
2.55353e-07
2.63291e-07
6.39503e-09
0.00111197
-3.09644e-07
1.31608e-06
3.06729e-07
9.72635e-07
-3.13573e-07
-9.7132e-07
3.07183e-07
-1.3166e-06
-2.91911e-09
6.50456e-09
0.00111242
-3.12578e-07
1.32163e-06
3.09542e-07
9.78396e-07
-3.16551e-07
-9.77106e-07
3.10055e-07
0.00111197
-3.18782e-09
-0.00111197
6.4978e-09
-1.31098e-06
3.06665e-07
-3.09694e-07
-9.71292e-07
3.07216e-07
-3.13558e-07
9.72684e-07
1.32166e-06
0.00111241
-2.97475e-09
-0.00111242
6.48232e-09
-1.3166e-06
3.09579e-07
-3.12601e-07
-9.77104e-07
3.10077e-07
-3.16547e-07
9.78421e-07
-2.53015e-07
-2.55341e-07
0.000270535
-1.28156e-06
0.000272619
-0.000270535
2.58224e-07
2.60513e-07
6.14602e-09
0.00111305
-3.06888e-07
1.27882e-06
3.04123e-07
9.75707e-07
-3.16434e-07
-9.74071e-07
3.10222e-07
-1.31102e-06
-3.13931e-09
6.32474e-09
0.00111208
-3.1249e-07
1.31616e-06
3.09652e-07
9.75436e-07
-3.16421e-07
-9.7415e-07
3.10077e-07
0.00111304
-3.46897e-09
-0.00111305
6.20353e-09
-1.27374e-06
3.04077e-07
-3.06924e-07
-9.7408e-07
3.10232e-07
-3.1643e-07
9.757e-07
1.3161e-06
0.00111208
-3.00512e-09
-0.00111208
6.49912e-09
-1.31108e-06
3.09531e-07
-3.12608e-07
-9.74166e-07
3.1006e-07
-3.16453e-07
9.7544e-07
-3.05036e-09
6.42999e-09
0.00111187
-3.06777e-07
1.31053e-06
3.03836e-07
9.72636e-07
-3.13568e-07
3.07185e-07
-9.7138e-07
-3.54523e-09
-0.00111277
6.21318e-09
-1.27639e-06
3.01179e-07
-3.04029e-07
-9.71299e-07
3.07387e-07
9.72836e-07
-3.13543e-07
1.31054e-06
0.00111187
-3.10446e-09
-0.00111187
6.49601e-09
-1.3055e-06
3.03838e-07
-3.06805e-07
-9.71384e-07
3.07187e-07
-3.13589e-07
9.72659e-07
-2.50419e-07
-2.57865e-07
0.000270495
-1.27596e-06
0.000272568
-0.000270495
2.55576e-07
2.6302e-07
-3.31814e-09
6.25869e-09
0.00111295
-3.04121e-07
1.27601e-06
3.01181e-07
9.72982e-07
-3.16403e-07
3.10216e-07
-9.71378e-07
-3.47604e-09
-0.00111242
6.28409e-09
-1.27087e-06
3.01156e-07
-3.04036e-07
-9.71129e-07
3.10092e-07
9.72669e-07
-3.16326e-07
1.27603e-06
0.00111295
-3.23429e-09
-0.00111295
6.23956e-09
-1.27104e-06
3.01197e-07
-3.04141e-07
-9.71408e-07
3.10186e-07
-3.16438e-07
9.72955e-07
-0.000270508
2.57874e-07
2.63286e-07
1.31101e-06
1.27376e-06
-2.50299e-07
-2.58127e-07
0.000270513
-1.31608e-06
-1.27885e-06
0.000272589
-0.000270513
2.55389e-07
2.633e-07
6.56724e-09
0.00111197
-3.0975e-07
1.31603e-06
3.06627e-07
9.72686e-07
-3.13568e-07
-9.71305e-07
3.07216e-07
-1.31658e-06
-3.01387e-09
6.4244e-09
0.00111241
-3.12573e-07
1.32169e-06
3.096e-07
9.78467e-07
-3.16537e-07
-9.77087e-07
3.10103e-07
0.00111197
-3.12234e-09
-0.00111197
6.47338e-09
-1.31101e-06
3.06707e-07
-3.09725e-07
-9.71341e-07
3.07212e-07
-3.13594e-07
9.72665e-07
1.32167e-06
0.00111241
-2.8255e-09
-0.00111241
6.54129e-09
-1.31662e-06
3.09574e-07
-3.12633e-07
-9.77184e-07
3.10044e-07
-3.16604e-07
9.78349e-07
-2.53003e-07
-2.55333e-07
0.000270535
-1.28158e-06
0.000272619
-0.000270534
2.58227e-07
2.60509e-07
6.26992e-09
0.00111304
-3.06971e-07
1.27881e-06
3.04049e-07
9.75682e-07
-3.1646e-07
-9.74114e-07
3.10214e-07
-1.3111e-06
-3.0407e-09
6.45382e-09
0.00111208
-3.12629e-07
1.31611e-06
3.09549e-07
9.75468e-07
-3.16447e-07
-9.7416e-07
3.10094e-07
0.00111304
-3.38205e-09
-0.00111304
6.23612e-09
-1.27375e-06
3.04127e-07
-3.0694e-07
-9.74171e-07
3.10198e-07
-3.16503e-07
9.75666e-07
1.3162e-06
0.00111208
-3.08302e-09
-0.00111208
6.30152e-09
-1.31102e-06
3.09662e-07
-3.12513e-07
-9.74195e-07
3.10095e-07
-3.16443e-07
9.75445e-07
-3.22355e-09
6.45564e-09
0.00111187
-3.06797e-07
1.31055e-06
3.03863e-07
9.72726e-07
-3.13566e-07
3.07234e-07
-9.71347e-07
-3.39524e-09
-0.00111277
6.28835e-09
-1.27641e-06
3.01175e-07
-3.04065e-07
-9.71388e-07
3.07348e-07
9.72747e-07
-3.13599e-07
1.3106e-06
0.00111187
-3.03707e-09
-0.00111187
6.39092e-09
-1.30546e-06
3.03911e-07
-3.06754e-07
-9.71459e-07
3.07178e-07
-3.13612e-07
9.72585e-07
-2.50484e-07
-2.57953e-07
0.000270495
-1.27603e-06
0.000272568
-0.000270494
2.55649e-07
2.63134e-07
-3.24899e-09
6.15939e-09
0.00111295
-3.04125e-07
1.27606e-06
3.01234e-07
9.72959e-07
-3.16457e-07
3.10192e-07
-9.7143e-07
-3.72989e-09
-0.00111242
6.11707e-09
-1.27084e-06
3.01267e-07
-3.03955e-07
-9.71037e-07
3.10189e-07
9.72784e-07
-3.16256e-07
1.27607e-06
0.00111295
-3.32413e-09
-0.00111295
6.21566e-09
-1.27101e-06
3.0125e-07
-3.04097e-07
-9.71439e-07
3.10216e-07
-3.16452e-07
9.72981e-07
-0.000270507
2.57907e-07
2.63343e-07
1.311e-06
1.27375e-06
-2.50282e-07
-2.58124e-07
0.000270513
-1.31609e-06
-1.27885e-06
0.000272589
-0.000270513
2.55374e-07
2.63299e-07
6.43339e-09
0.00111197
-3.09712e-07
1.31609e-06
3.06722e-07
9.72645e-07
-3.13624e-07
-9.71387e-07
3.07197e-07
-1.31663e-06
-2.79755e-09
6.57398e-09
0.00111241
-3.12639e-07
1.32167e-06
3.09578e-07
9.78343e-07
-3.16639e-07
-9.77244e-07
3.10034e-07
0.00111197
-3.05881e-09
-0.00111197
6.51267e-09
-1.31103e-06
3.06708e-07
-3.09757e-07
-9.71412e-07
3.07197e-07
-3.13661e-07
9.72659e-07
1.32167e-06
0.00111241
-2.78592e-09
-0.00111241
6.60369e-09
-1.31667e-06
3.09584e-07
-3.12669e-07
-9.77215e-07
3.10043e-07
-3.16669e-07
9.78412e-07
-2.53048e-07
-2.55388e-07
0.000270534
-1.28157e-06
0.000272618
-0.000270534
2.58219e-07
2.60509e-07
6.20381e-09
0.00111304
-3.06934e-07
1.27886e-06
3.04133e-07
9.7568e-07
-3.16525e-07
-9.74177e-07
3.10195e-07
-1.31107e-06
-3.04211e-09
6.42832e-09
0.00111208
-3.12582e-07
1.31616e-06
3.09595e-07
9.7545e-07
-3.16482e-07
-9.7422e-07
3.10081e-07
0.00111304
-3.29617e-09
-0.00111304
6.18925e-09
-1.27379e-06
3.04119e-07
-3.06982e-07
-9.74205e-07
3.10198e-07
-3.16551e-07
9.75687e-07
1.31609e-06
0.00111208
-2.85857e-09
-0.00111208
6.66078e-09
-1.31119e-06
3.09523e-07
-3.12723e-07
-9.74259e-07
3.10063e-07
-3.16531e-07
9.75436e-07
-2.9585e-09
6.43105e-09
0.00111187
-3.0679e-07
1.31058e-06
3.03884e-07