/*--------------------------------*- C++ -*----------------------------------*\
| =========                 |                                                 |
| \\      /  F ield         | OpenFOAM: The Open Source CFD Toolbox           |
|  \\    /   O peration     | Version:  v1912                                 |
|   \\  /    A nd           | Website:  www.openfoam.com                      |
|    \\/     M anipulation  |                                                 |
\*---------------------------------------------------------------------------*/
FoamFile
{
    version     2.0;
    format      ascii;
    class       volVectorField;
    location    "60";
    object      U;
}
// * * * * * * * * * * * * * * * * * * * * * * * * * * * * * * * * * * * * * //

dimensions      [0 1 -1 0 0 0 0];


internalField   nonuniform List<vector> 
57062
(
(-1.40187e-06 -1.42709e-06 0.105988)
(-1.03727e-06 1.59953e-06 0.105646)
(1.61521e-06 -1.02134e-06 0.105646)
(-5.8145e-05 -5.81506e-05 0.105196)
(-1.42403e-06 -1.43179e-06 0.105988)
(-1.01013e-06 1.62122e-06 0.105646)
(1.62118e-06 -1.02524e-06 0.105646)
(-5.8144e-05 -5.81589e-05 0.105196)
(-1.42518e-06 -1.42926e-06 0.105988)
(-9.79651e-07 1.6076e-06 0.105646)
(1.63002e-06 -1.00516e-06 0.105646)
(-5.81224e-05 -5.81266e-05 0.105196)
(-1.44299e-06 -1.43999e-06 0.105988)
(-9.89868e-07 1.61867e-06 0.105646)
(1.61505e-06 -9.85711e-07 0.105646)
(-5.81344e-05 -5.81462e-05 0.105195)
(-1.44696e-06 -1.43562e-06 0.105988)
(-9.96123e-07 1.62404e-06 0.105646)
(1.60861e-06 -9.69971e-07 0.105646)
(-5.81606e-05 -5.81553e-05 0.105195)
(-1.43394e-06 -1.43351e-06 0.105988)
(-9.79974e-07 1.61819e-06 0.105646)
(1.62531e-06 -9.92035e-07 0.105646)
(-5.81614e-05 -5.81612e-05 0.105195)
(-1.43802e-06 -1.42963e-06 0.105988)
(-1.00434e-06 1.62359e-06 0.105646)
(1.61833e-06 -9.93095e-07 0.105645)
(-5.81724e-05 -5.81557e-05 0.105195)
(-1.43282e-06 -1.42923e-06 0.105988)
(-1.00403e-06 1.63145e-06 0.105645)
(1.63622e-06 -1.01435e-06 0.105645)
(-5.81838e-05 -5.81907e-05 0.105195)
(-1.44007e-06 -1.4251e-06 0.105988)
(-1.02249e-06 1.62465e-06 0.105645)
(1.61835e-06 -1.00364e-06 0.105645)
(-5.82086e-05 -5.82049e-05 0.105194)
(-1.42633e-06 -1.41267e-06 0.105988)
(-1.06824e-06 1.63829e-06 0.105645)
(1.62762e-06 -1.03235e-06 0.105645)
(-5.82588e-05 -5.82357e-05 0.105194)
(-1.31399e-06 -1.31578e-06 0.105988)
(-1.13739e-06 1.68857e-06 0.105646)
(1.70376e-06 -1.13974e-06 0.105646)
(-5.83672e-05 -5.83741e-05 0.105195)
(-1.37085e-06 -1.37263e-06 0.105988)
(-1.0544e-06 1.65377e-06 0.105646)
(1.64566e-06 -1.06208e-06 0.105646)
(-5.82809e-05 -5.83132e-05 0.105195)
(-1.39786e-06 -1.41031e-06 0.105988)
(-9.96349e-07 1.61525e-06 0.105647)
(1.64725e-06 -1.01833e-06 0.105646)
(-5.82274e-05 -5.8244e-05 0.105196)
(-1.455e-06 -1.46504e-06 0.105988)
(-9.47549e-07 1.57813e-06 0.105646)
(1.59387e-06 -9.48227e-07 0.105646)
(-5.81257e-05 -5.81411e-05 0.105196)
(-1.47055e-06 -1.46122e-06 0.105988)
(-9.79528e-07 1.58533e-06 0.105646)
(1.5793e-06 -9.61752e-07 0.105646)
(-5.81814e-05 -5.81747e-05 0.105196)
(-1.44336e-06 -1.43353e-06 0.105988)
(-1.0021e-06 1.60971e-06 0.105646)
(1.60543e-06 -9.90729e-07 0.105646)
(-5.82134e-05 -5.82086e-05 0.105196)
(-1.43426e-06 -1.42951e-06 0.105988)
(-1.00013e-06 1.61189e-06 0.105646)
(1.61338e-06 -9.92416e-07 0.105646)
(-5.81994e-05 -5.81999e-05 0.105196)
(-1.43623e-06 -1.43434e-06 0.105988)
(-1.00332e-06 1.61367e-06 0.105646)
(1.61571e-06 -9.95668e-07 0.105646)
(-5.81462e-05 -5.81472e-05 0.105196)
(-1.42948e-06 -1.42705e-06 0.105988)
(-1.01171e-06 1.61845e-06 0.105646)
(1.61832e-06 -1.00309e-06 0.105646)
(-5.82012e-05 -5.82031e-05 0.105196)
(-1.42194e-06 -1.4201e-06 0.105988)
(-1.01914e-06 1.61765e-06 0.105646)
(1.62455e-06 -1.01697e-06 0.105646)
(-5.80921e-05 -5.80948e-05 0.105196)
(-1.41678e-06 -1.41395e-06 0.105989)
(-1.03708e-06 1.62685e-06 0.105646)
(1.62947e-06 -1.03074e-06 0.105646)
(-5.80137e-05 -5.80161e-05 0.105195)
(-1.40239e-06 -1.40085e-06 0.105989)
(-1.07751e-06 1.6524e-06 0.105646)
(1.65124e-06 -1.06759e-06 0.105646)
(-5.78888e-05 -5.78945e-05 0.105195)
(-1.37311e-06 -1.37196e-06 0.105989)
(-1.15608e-06 1.7007e-06 0.105646)
(1.70901e-06 -1.15358e-06 0.105646)
(-5.76973e-05 -5.77045e-05 0.105195)
(-1.32872e-06 -1.32433e-06 0.10599)
(-1.31733e-06 1.81945e-06 0.105646)
(1.81937e-06 -1.30935e-06 0.105646)
(-5.72987e-05 -5.73054e-05 0.105195)
(-1.2536e-06 -1.24732e-06 0.105991)
(-1.67497e-06 2.05052e-06 0.105646)
(2.05374e-06 -1.66781e-06 0.105646)
(-5.6678e-05 -5.66841e-05 0.105195)
(-1.15014e-06 -1.14168e-06 0.105993)
(-2.37556e-06 2.52045e-06 0.105645)
(2.52274e-06 -2.36902e-06 0.105645)
(-5.54461e-05 -5.54524e-05 0.105196)
(-1.05502e-06 -1.04883e-06 0.105995)
(-3.6817e-06 3.45496e-06 0.105643)
(3.45293e-06 -3.67778e-06 0.105643)
(-5.30294e-05 -5.30406e-05 0.105198)
(-1.15613e-06 -1.14702e-06 0.106)
(-6.08951e-06 5.22202e-06 0.105641)
(5.21553e-06 -6.06418e-06 0.105641)
(-4.71811e-05 -4.71771e-05 0.105203)
(-5.3764e-06 -5.31729e-06 0.106003)
(-8.04534e-06 7.05946e-06 0.105636)
(7.03277e-06 -8.01722e-06 0.105636)
(-3.07145e-05 -3.06888e-05 0.105212)
(-4.24857e-05 -4.23472e-05 0.105961)
(4.05011e-05 -2.93001e-05 0.105638)
(-2.93862e-05 4.04923e-05 0.105638)
(3.6376e-05 3.64443e-05 0.105243)
(-6.22012e-05 -6.22033e-05 0.105229)
(1.66842e-06 1.12539e-06 0.105646)
(-1.66532e-06 1.0882e-06 0.105646)
(6.22062e-05 -6.21779e-05 0.105229)
(1.0527e-06 1.55183e-06 0.105646)
(1.06848e-06 -1.63831e-06 0.105646)
(-1.05125e-06 1.59906e-06 0.105646)
(-1.08537e-06 -1.64494e-06 0.105646)
(-6.21539e-05 6.22513e-05 0.105229)
(1.61026e-06 -1.04556e-06 0.105646)
(-1.61388e-06 -1.05966e-06 0.105646)
(6.21682e-05 6.22026e-05 0.105229)
(5.81575e-05 5.81108e-05 0.105196)
(-6.22096e-05 -6.21762e-05 0.105229)
(1.66714e-06 1.10624e-06 0.105646)
(-1.6658e-06 1.07118e-06 0.105646)
(1.66355e-06 1.06222e-06 0.105646)
(-1.66824e-06 1.07273e-06 0.105646)
(-5.81433e-05 5.80975e-05 0.105196)
(6.21965e-05 -6.21667e-05 0.105229)
(1.0427e-06 1.57374e-06 0.105646)
(1.04856e-06 -1.63946e-06 0.105646)
(1.02119e-06 1.60427e-06 0.105646)
(1.06283e-06 -1.65401e-06 0.105646)
(-1.06218e-06 -1.64695e-06 0.105646)
(-1.01407e-06 1.61999e-06 0.105646)
(-1.0543e-06 -1.65312e-06 0.105646)
(5.8136e-05 -5.81396e-05 0.105196)
(-6.21682e-05 6.22167e-05 0.105229)
(-1.6144e-06 -1.03487e-06 0.105646)
(1.62133e-06 -1.02888e-06 0.105646)
(-1.61424e-06 -1.02178e-06 0.105646)
(6.21601e-05 6.21841e-05 0.105229)
(5.81414e-05 5.81232e-05 0.105196)
(-6.21993e-05 -6.2164e-05 0.105229)
(1.66239e-06 1.06288e-06 0.105646)
(-1.66846e-06 1.07317e-06 0.105646)
(1.66662e-06 1.04595e-06 0.105646)
(-1.65134e-06 1.05756e-06 0.105646)
(-5.81448e-05 5.80991e-05 0.105196)
(6.22098e-05 -6.21788e-05 0.105229)
(1.01859e-06 1.60429e-06 0.105646)
(1.05895e-06 -1.65403e-06 0.105646)
(1.00822e-06 1.60796e-06 0.105646)
(1.04595e-06 -1.64652e-06 0.105646)
(-1.05778e-06 -1.65767e-06 0.105646)
(-9.84645e-07 1.60956e-06 0.105646)
(-1.03139e-06 -1.64169e-06 0.105646)
(5.81186e-05 -5.81637e-05 0.105196)
(-6.21625e-05 6.22095e-05 0.105229)
(-1.61559e-06 -1.02355e-06 0.105646)
(1.62072e-06 -1.00291e-06 0.105646)
(-1.59417e-06 -9.94661e-07 0.105646)
(6.21664e-05 6.22031e-05 0.105229)
(5.8149e-05 5.81324e-05 0.105196)
(-6.22029e-05 -6.21719e-05 0.105229)
(1.67479e-06 1.0551e-06 0.105646)
(-1.64651e-06 1.05199e-06 0.105646)
(1.65026e-06 1.02526e-06 0.105646)
(-1.66402e-06 1.05946e-06 0.105646)
(-5.81192e-05 5.80772e-05 0.105196)
(6.21874e-05 -6.21554e-05 0.105229)
(1.01568e-06 1.62038e-06 0.105646)
(1.05008e-06 -1.65487e-06 0.105646)
(9.91184e-07 1.60241e-06 0.105646)
(1.03787e-06 -1.64393e-06 0.105646)
(-1.03042e-06 -1.63889e-06 0.105646)
(-9.9083e-07 1.62489e-06 0.105646)
(-1.02939e-06 -1.6381e-06 0.105646)
(5.81194e-05 -5.81653e-05 0.105196)
(-6.21594e-05 6.22037e-05 0.105229)
(-1.59052e-06 -9.95297e-07 0.105646)
(1.61742e-06 -9.89289e-07 0.105646)
(-1.59848e-06 -9.98732e-07 0.105646)
(6.21581e-05 6.21848e-05 0.105229)
(5.81319e-05 5.81136e-05 0.105195)
(-6.22053e-05 -6.21581e-05 0.105229)
(1.64933e-06 1.03234e-06 0.105646)
(-1.65957e-06 1.05538e-06 0.105646)
(1.65524e-06 1.03293e-06 0.105646)
(-1.66028e-06 1.05351e-06 0.105646)
(-5.81436e-05 5.81015e-05 0.105195)
(6.22015e-05 -6.21742e-05 0.105229)
(9.91909e-07 1.60552e-06 0.105646)
(1.03552e-06 -1.64281e-06 0.105646)
(9.90097e-07 1.61351e-06 0.105646)
(1.03586e-06 -1.63853e-06 0.105646)
(-1.03577e-06 -1.63518e-06 0.105646)
(-9.87716e-07 1.61429e-06 0.105646)
(-1.03984e-06 -1.64327e-06 0.105646)
(5.81112e-05 -5.81608e-05 0.105195)
(-6.2171e-05 6.22157e-05 0.105228)
(-1.59905e-06 -1.00164e-06 0.105646)
(1.61343e-06 -9.76144e-07 0.105646)
(-1.61874e-06 -1.00025e-06 0.105646)
(6.21426e-05 6.21853e-05 0.105228)
(5.81366e-05 5.81338e-05 0.105195)
(-6.2206e-05 -6.21661e-05 0.105228)
(1.65138e-06 1.03813e-06 0.105646)
(-1.6712e-06 1.05847e-06 0.105646)
(1.66446e-06 1.03001e-06 0.105645)
(-1.66494e-06 1.05129e-06 0.105645)
(-5.81418e-05 5.80946e-05 0.105195)
(6.22045e-05 -6.21784e-05 0.105228)
(9.90536e-07 1.6147e-06 0.105646)
(1.03182e-06 -1.63451e-06 0.105646)
(9.92569e-07 1.62188e-06 0.105646)
(1.04666e-06 -1.66066e-06 0.105645)
(-1.04643e-06 -1.64399e-06 0.105646)
(-9.86035e-07 1.61918e-06 0.105646)
(-1.04031e-06 -1.65233e-06 0.105645)
(5.81098e-05 -5.8159e-05 0.105195)
(-6.21693e-05 6.22054e-05 0.105228)
(-1.62076e-06 -9.97234e-07 0.105646)
(1.6323e-06 -9.99709e-07 0.105646)
(-1.62199e-06 -1.00715e-06 0.105646)
(6.21492e-05 6.21906e-05 0.105228)
(5.81577e-05 5.81434e-05 0.105195)
(-6.22158e-05 -6.21835e-05 0.105228)
(1.67195e-06 1.03711e-06 0.105645)
(-1.6607e-06 1.04692e-06 0.105645)
(1.65967e-06 1.03274e-06 0.105645)
(-1.67023e-06 1.0653e-06 0.105645)
(-5.81413e-05 5.80941e-05 0.105195)
(6.22109e-05 -6.21869e-05 0.105228)
(1.00235e-06 1.62881e-06 0.105646)
(1.04003e-06 -1.6538e-06 0.105645)
(1.00189e-06 1.62014e-06 0.105646)
(1.03952e-06 -1.63535e-06 0.105645)
(-1.03103e-06 -1.64609e-06 0.105645)
(-1.00091e-06 1.62513e-06 0.105646)
(-1.04565e-06 -1.63668e-06 0.105645)
(5.81354e-05 -5.81915e-05 0.105195)
(-6.21978e-05 6.22484e-05 0.105228)
(-1.60874e-06 -1.00438e-06 0.105646)
(1.61179e-06 -9.7349e-07 0.105645)
(-1.61457e-06 -9.98541e-07 0.105645)
(6.21664e-05 6.22183e-05 0.105228)
(5.81579e-05 5.81413e-05 0.105195)
(-6.2222e-05 -6.21835e-05 0.105228)
(1.65527e-06 1.03964e-06 0.105645)
(-1.67234e-06 1.06661e-06 0.105645)
(1.6652e-06 1.04166e-06 0.105645)
(-1.68149e-06 1.07122e-06 0.105645)
(-5.81623e-05 5.81114e-05 0.105195)
(6.22152e-05 -6.21888e-05 0.105228)
(1.00267e-06 1.6197e-06 0.105646)
(1.043e-06 -1.65035e-06 0.105645)
(1.01138e-06 1.62484e-06 0.105645)
(1.05754e-06 -1.67751e-06 0.105645)
(-1.05632e-06 -1.6411e-06 0.105645)
(-1.00843e-06 1.63311e-06 0.105645)
(-1.05116e-06 -1.65936e-06 0.105645)
(5.81294e-05 -5.81755e-05 0.105195)
(-6.21886e-05 6.22073e-05 0.105228)
(-1.61839e-06 -1.00569e-06 0.105645)
(1.63299e-06 -1.01544e-06 0.105645)
(-1.61927e-06 -1.02015e-06 0.105645)
(6.21691e-05 6.22032e-05 0.105228)
(5.8179e-05 5.81663e-05 0.105195)
(-6.22449e-05 -6.21995e-05 0.105228)
(1.66693e-06 1.04878e-06 0.105645)
(-1.68038e-06 1.06898e-06 0.105645)
(1.65845e-06 1.03788e-06 0.105645)
(-1.6825e-06 1.06299e-06 0.105645)
(-5.81835e-05 5.81356e-05 0.105195)
(6.22306e-05 -6.22154e-05 0.105228)
(1.01348e-06 1.62718e-06 0.105645)
(1.05846e-06 -1.67787e-06 0.105645)
(9.94679e-07 1.6232e-06 0.105645)
(1.0405e-06 -1.66796e-06 0.105645)
(-1.04756e-06 -1.65817e-06 0.105645)
(-1.01676e-06 1.62729e-06 0.105645)
(-1.05821e-06 -1.66633e-06 0.105645)
(5.81596e-05 -5.82302e-05 0.105195)
(-6.22115e-05 6.22413e-05 0.105228)
(-1.61713e-06 -1.0229e-06 0.105645)
(1.61942e-06 -9.96772e-07 0.105645)
(-1.62929e-06 -1.01346e-06 0.105645)
(6.21807e-05 6.22216e-05 0.105228)
(5.81816e-05 5.81778e-05 0.105195)
(-6.22502e-05 -6.21981e-05 0.105228)
(1.66352e-06 1.05465e-06 0.105645)
(-1.68609e-06 1.06891e-06 0.105645)
(1.65703e-06 1.05267e-06 0.105645)
(-1.69468e-06 1.07017e-06 0.105645)
(-5.81996e-05 5.81386e-05 0.105194)
(6.22127e-05 -6.22229e-05 0.105228)
(1.00547e-06 1.6334e-06 0.105645)
(1.04407e-06 -1.67229e-06 0.105645)
(1.00944e-06 1.62858e-06 0.105645)
(1.05467e-06 -1.67876e-06 0.105645)
(-1.07183e-06 -1.67032e-06 0.105645)
(-1.03814e-06 1.62334e-06 0.105645)
(-1.0774e-06 -1.65962e-06 0.105645)
(5.81555e-05 -5.82218e-05 0.105195)
(-6.22182e-05 6.22318e-05 0.105228)
(-1.6383e-06 -1.02784e-06 0.105645)
(1.61949e-06 -1.02148e-06 0.105645)
(-1.63818e-06 -1.02899e-06 0.105645)
(6.21713e-05 6.22308e-05 0.105228)
(5.82083e-05 5.82084e-05 0.105195)
(-6.2147e-05 -6.21082e-05 0.105228)
(1.65661e-06 1.06333e-06 0.105645)
(-1.71591e-06 1.084e-06 0.105645)
(1.72676e-06 1.1619e-06 0.105645)
(-1.75655e-06 1.19336e-06 0.105645)
(-5.826e-05 5.8172e-05 0.105194)
(6.21251e-05 -6.211e-05 0.105228)
(1.01609e-06 1.62943e-06 0.105645)
(1.064e-06 -1.68661e-06 0.105645)
(1.13005e-06 1.69035e-06 0.105645)
(1.17612e-06 -1.73696e-06 0.105645)
(-1.10651e-06 -1.66848e-06 0.105645)
(-1.14662e-06 1.6866e-06 0.105646)
(-1.19786e-06 -1.72244e-06 0.105645)
(5.81895e-05 -5.82682e-05 0.105194)
(-6.21107e-05 6.21465e-05 0.105228)
(-1.65176e-06 -1.04699e-06 0.105645)
(1.69113e-06 -1.12138e-06 0.105645)
(-1.7005e-06 -1.15747e-06 0.105645)
(6.20791e-05 6.21197e-05 0.105228)
(5.83479e-05 5.83338e-05 0.105195)
(-6.2163e-05 -6.2133e-05 0.105229)
(1.7443e-06 1.19268e-06 0.105645)
(-1.73857e-06 1.2148e-06 0.105645)
(1.69908e-06 1.12342e-06 0.105646)
(-1.66405e-06 1.15789e-06 0.105646)
(-5.83539e-05 5.83059e-05 0.105195)
(6.2206e-05 -6.21418e-05 0.105229)
(1.16164e-06 1.7037e-06 0.105646)
(1.20319e-06 -1.73952e-06 0.105645)
(1.098e-06 1.64869e-06 0.105646)
(1.14131e-06 -1.67966e-06 0.105646)
(-1.19327e-06 -1.71912e-06 0.105645)
(-1.05969e-06 1.6569e-06 0.105646)
(-1.10501e-06 -1.67691e-06 0.105646)
(5.83242e-05 -5.83784e-05 0.105195)
(-6.21387e-05 6.21807e-05 0.105229)
(-1.6801e-06 -1.17587e-06 0.105646)
(1.65524e-06 -1.07998e-06 0.105646)
(-1.60441e-06 -1.10378e-06 0.105646)
(6.21608e-05 6.21645e-05 0.105229)
(5.83001e-05 5.82796e-05 0.105195)
(-6.22031e-05 -6.2179e-05 0.105229)
(1.6856e-06 1.10069e-06 0.105646)
(-1.66795e-06 1.13511e-06 0.105646)
(1.70318e-06 1.06639e-06 0.105646)
(-1.66589e-06 1.09085e-06 0.105646)
(-5.82666e-05 5.82529e-05 0.105196)
(6.2251e-05 -6.22124e-05 0.105229)
(1.07127e-06 1.63996e-06 0.105646)
(1.11188e-06 -1.67568e-06 0.105646)
(1.04845e-06 1.64939e-06 0.105646)
(1.0856e-06 -1.68346e-06 0.105646)
(-1.10209e-06 -1.6785e-06 0.105646)
(-1.02103e-06 1.62982e-06 0.105647)
(-1.0707e-06 -1.67619e-06 0.105646)
(5.82707e-05 -5.83264e-05 0.105195)
(-6.21883e-05 6.22201e-05 0.105229)
(-1.61054e-06 -1.08929e-06 0.105646)
(1.65298e-06 -1.03696e-06 0.105646)
(-1.62593e-06 -1.04974e-06 0.105646)
(6.21866e-05 6.22096e-05 0.105229)
(5.82578e-05 5.82297e-05 0.105196)
(-6.22699e-05 -6.22496e-05 0.105229)
(1.70361e-06 1.06228e-06 0.105646)
(-1.64703e-06 1.07139e-06 0.105646)
(1.66064e-06 9.99056e-07 0.105646)
(-1.61006e-06 1.02035e-06 0.105646)
(-5.8199e-05 5.81639e-05 0.105196)
(6.23205e-05 -6.22854e-05 0.105229)
(1.04431e-06 1.64829e-06 0.105646)
(1.07347e-06 -1.67138e-06 0.105646)
(9.85678e-07 1.60142e-06 0.105646)
(1.01873e-06 -1.62145e-06 0.105646)
(-1.04751e-06 -1.65839e-06 0.105646)
(-9.47605e-07 1.58147e-06 0.105646)
(-9.80801e-07 -1.60505e-06 0.105646)
(5.82122e-05 -5.82708e-05 0.105196)
(-6.22601e-05 6.23057e-05 0.105229)
(-1.60553e-06 -1.03197e-06 0.105646)
(1.60145e-06 -9.54181e-07 0.105646)
(-1.55313e-06 -9.64607e-07 0.105646)
(6.22821e-05 6.23032e-05 0.105229)
(5.8167e-05 5.81383e-05 0.105196)
(-6.23109e-05 -6.22729e-05 0.105229)
(1.64584e-06 9.94642e-07 0.105646)
(-1.61403e-06 1.01198e-06 0.105646)
(1.61705e-06 9.90435e-07 0.105646)
(-1.64451e-06 1.02533e-06 0.105646)
(-5.81288e-05 5.80857e-05 0.105196)
(6.22845e-05 -6.22744e-05 0.105229)
(9.73591e-07 1.59239e-06 0.105646)
(1.00829e-06 -1.62032e-06 0.105646)
(9.589e-07 1.57722e-06 0.105646)
(1.01268e-06 -1.63208e-06 0.105646)
(-9.80736e-07 -1.59569e-06 0.105646)
(-9.77207e-07 1.58566e-06 0.105646)
(-1.0205e-06 -1.62312e-06 0.105646)
(5.81261e-05 -5.81756e-05 0.105196)
(-6.22657e-05 6.22964e-05 0.105229)
(-1.54879e-06 -9.59209e-07 0.105646)
(1.58539e-06 -9.62533e-07 0.105646)
(-1.59567e-06 -9.82004e-07 0.105646)
(6.22327e-05 6.2277e-05 0.105229)
(5.81386e-05 5.81276e-05 0.105196)
(-6.22514e-05 -6.22081e-05 0.105229)
(1.62304e-06 1.00858e-06 0.105646)
(-1.64647e-06 1.02755e-06 0.105646)
(1.65908e-06 1.04795e-06 0.105646)
(-1.67556e-06 1.07132e-06 0.105646)
(-5.81651e-05 5.81011e-05 0.105196)
(6.22447e-05 -6.22273e-05 0.105229)
(9.69765e-07 1.58923e-06 0.105646)
(1.01011e-06 -1.62833e-06 0.105646)
(1.01005e-06 1.62482e-06 0.105646)
(1.05429e-06 -1.65973e-06 0.105646)
(-1.02818e-06 -1.62278e-06 0.105646)
(-1.01384e-06 1.61934e-06 0.105646)
(-1.0594e-06 -1.65287e-06 0.105646)
(5.81234e-05 -5.81867e-05 0.105196)
(-6.22245e-05 6.2256e-05 0.105229)
(-1.59795e-06 -9.87415e-07 0.105646)
(1.61232e-06 -1.00009e-06 0.105646)
(-1.62663e-06 -1.0196e-06 0.105646)
(6.21941e-05 6.2239e-05 0.105229)
(5.81937e-05 5.81856e-05 0.105196)
(-6.22362e-05 -6.21969e-05 0.105229)
(1.64651e-06 1.04129e-06 0.105646)
(-1.66444e-06 1.06011e-06 0.105646)
(1.66797e-06 1.05623e-06 0.105646)
(-1.67977e-06 1.08484e-06 0.105646)
(-5.82027e-05 5.81469e-05 0.105196)
(6.22325e-05 -6.22086e-05 0.105229)
(1.00036e-06 1.61336e-06 0.105646)
(1.04426e-06 -1.65279e-06 0.105646)
(1.02272e-06 1.6294e-06 0.105646)
(1.07197e-06 -1.67372e-06 0.105646)
(-1.05289e-06 -1.64421e-06 0.105646)
(-1.02368e-06 1.6309e-06 0.105646)
(-1.06668e-06 -1.6607e-06 0.105646)
(5.81674e-05 -5.82291e-05 0.105196)
(-6.21994e-05 6.22338e-05 0.105229)
(-1.61515e-06 -1.01513e-06 0.105646)
(1.63202e-06 -1.01639e-06 0.105646)
(-1.62759e-06 -1.03323e-06 0.105646)
(6.21834e-05 6.22224e-05 0.105229)
(5.81903e-05 5.81783e-05 0.105196)
(-6.2179e-05 -6.21422e-05 0.105229)
(1.65782e-06 1.04648e-06 0.105646)
(-1.65933e-06 1.06165e-06 0.105646)
(1.66857e-06 1.0524e-06 0.105646)
(-1.68162e-06 1.08757e-06 0.105646)
(-5.81898e-05 5.81401e-05 0.105196)
(6.21729e-05 -6.21486e-05 0.105229)
(1.0098e-06 1.62044e-06 0.105646)
(1.04815e-06 -1.65398e-06 0.105646)
(1.02206e-06 1.62719e-06 0.105646)
(1.07434e-06 -1.67449e-06 0.105646)
(-1.04619e-06 -1.63918e-06 0.105646)
(-1.02491e-06 1.63412e-06 0.105646)
(-1.06759e-06 -1.66157e-06 0.105646)
(5.81663e-05 -5.82248e-05 0.105196)
(-6.21406e-05 6.21749e-05 0.105229)
(-1.60492e-06 -1.01403e-06 0.105646)
(1.63499e-06 -1.01734e-06 0.105646)
(-1.62647e-06 -1.03435e-06 0.105646)
(6.21248e-05 6.21632e-05 0.105229)
(5.81279e-05 5.81136e-05 0.105196)
(-6.22102e-05 -6.21732e-05 0.105229)
(1.65419e-06 1.04038e-06 0.105646)
(-1.66222e-06 1.06404e-06 0.105646)
(1.67849e-06 1.05475e-06 0.105646)
(-1.67829e-06 1.08057e-06 0.105646)
(-5.81357e-05 5.80854e-05 0.105196)
(6.22178e-05 -6.21934e-05 0.105229)
(1.00636e-06 1.61449e-06 0.105646)
(1.05099e-06 -1.65683e-06 0.105646)
(1.02507e-06 1.63702e-06 0.105646)
(1.06652e-06 -1.67039e-06 0.105646)
(-1.05204e-06 -1.64467e-06 0.105646)
(-1.01911e-06 1.63095e-06 0.105646)
(-1.06228e-06 -1.66082e-06 0.105646)
(5.81097e-05 -5.81692e-05 0.105196)
(-6.21862e-05 6.22194e-05 0.105229)
(-1.60878e-06 -1.01933e-06 0.105646)
(1.63146e-06 -1.01079e-06 0.105646)
(-1.62517e-06 -1.02942e-06 0.105646)
(6.21686e-05 6.22061e-05 0.105229)
(5.8199e-05 5.81851e-05 0.105196)
(-6.21377e-05 -6.21001e-05 0.105229)
(1.66188e-06 1.05079e-06 0.105646)
(-1.66608e-06 1.07234e-06 0.105646)
(1.67205e-06 1.04639e-06 0.105646)
(-1.67114e-06 1.07062e-06 0.105646)
(-5.81941e-05 5.81443e-05 0.105196)
(6.21444e-05 -6.21201e-05 0.105229)
(1.0163e-06 1.62293e-06 0.105646)
(1.05703e-06 -1.65939e-06 0.105646)
(1.01617e-06 1.6302e-06 0.105646)
(1.06169e-06 -1.66989e-06 0.105646)
(-1.05497e-06 -1.64409e-06 0.105646)
(-1.00901e-06 1.62362e-06 0.105646)
(-1.0555e-06 -1.65658e-06 0.105646)
(5.81663e-05 -5.82267e-05 0.105196)
(-6.21081e-05 6.21398e-05 0.105229)
(-1.60774e-06 -1.02309e-06 0.105646)
(1.62998e-06 -1.00804e-06 0.105646)
(-1.61979e-06 -1.02251e-06 0.105646)
(6.20917e-05 6.21285e-05 0.105229)
(5.80879e-05 5.80744e-05 0.105196)
(-6.20663e-05 -6.20276e-05 0.105229)
(1.667e-06 1.06398e-06 0.105646)
(-1.66527e-06 1.07923e-06 0.105646)
(1.6572e-06 1.02484e-06 0.105646)
(-1.66769e-06 1.05622e-06 0.105646)
(-5.80807e-05 5.8031e-05 0.105196)
(6.20606e-05 -6.20375e-05 0.105229)
(1.02906e-06 1.62757e-06 0.105646)
(1.07007e-06 -1.66731e-06 0.105646)
(9.93333e-07 1.61754e-06 0.105646)
(1.03853e-06 -1.65394e-06 0.105646)
(-1.06557e-06 -1.6465e-06 0.105646)
(-9.96148e-07 1.61911e-06 0.105646)
(-1.04218e-06 -1.65009e-06 0.105646)
(5.80596e-05 -5.81209e-05 0.105196)
(-6.20366e-05 6.20674e-05 0.105229)
(-1.60974e-06 -1.03295e-06 0.105646)
(1.61345e-06 -9.84346e-07 0.105646)
(-1.61621e-06 -1.00556e-06 0.105646)
(6.20101e-05 6.20478e-05 0.105229)
(5.80009e-05 5.79878e-05 0.105195)
(-6.19497e-05 -6.19133e-05 0.105229)
(1.67189e-06 1.07881e-06 0.105646)
(-1.67538e-06 1.09634e-06 0.105646)
(1.63785e-06 9.888e-07 0.105646)
(-1.64681e-06 1.02317e-06 0.105646)
(-5.80037e-05 5.79526e-05 0.105195)
(6.19477e-05 -6.19239e-05 0.10523)
(1.04342e-06 1.63323e-06 0.105646)
(1.08263e-06 -1.6735e-06 0.105646)
(9.59237e-07 1.59536e-06 0.105646)
(1.00987e-06 -1.63992e-06 0.105646)
(-1.08482e-06 -1.65611e-06 0.105646)
(-9.62143e-07 1.59966e-06 0.105646)
(-1.00729e-06 -1.62946e-06 0.105646)
(5.79734e-05 -5.80341e-05 0.105195)
(-6.19135e-05 6.19437e-05 0.105229)
(-1.62039e-06 -1.05007e-06 0.105646)
(1.60106e-06 -9.5527e-07 0.105646)
(-1.5918e-06 -9.71248e-07 0.105646)
(6.1899e-05 6.19339e-05 0.105229)
(5.78794e-05 5.78644e-05 0.105195)
(-6.17592e-05 -6.17235e-05 0.10523)
(1.69348e-06 1.11502e-06 0.105646)
(-1.69965e-06 1.13732e-06 0.105646)
(1.59958e-06 9.23441e-07 0.105646)
(-1.59726e-06 9.50549e-07 0.105646)
(-5.7883e-05 5.78325e-05 0.105195)
(6.17697e-05 -6.17467e-05 0.10523)
(1.08012e-06 1.65317e-06 0.105646)
(1.12e-06 -1.69411e-06 0.105646)
(8.93972e-07 1.55677e-06 0.105646)
(9.403e-07 -1.59659e-06 0.105646)
(-1.12258e-06 -1.67736e-06 0.105646)
(-8.89274e-07 1.55002e-06 0.105646)
(-9.40893e-07 -1.59076e-06 0.105646)
(5.78545e-05 -5.79146e-05 0.105195)
(-6.17324e-05 6.17617e-05 0.10523)
(-1.63936e-06 -1.0879e-06 0.105646)
(1.55671e-06 -8.8715e-07 0.105646)
(-1.5521e-06 -9.0172e-07 0.105646)
(6.17108e-05 6.17443e-05 0.10523)
(5.76831e-05 5.76672e-05 0.105195)
(-6.14386e-05 -6.14015e-05 0.10523)
(1.74558e-06 1.19377e-06 0.105646)
(-1.74958e-06 1.21487e-06 0.105646)
(1.49409e-06 7.69738e-07 0.105646)
(-1.49564e-06 7.9799e-07 0.105646)
(-5.76773e-05 5.76263e-05 0.105195)
(6.1445e-05 -6.14203e-05 0.10523)
(1.15942e-06 1.70477e-06 0.105646)
(1.20451e-06 -1.75393e-06 0.105646)
(7.39367e-07 1.45322e-06 0.105646)
(7.8196e-07 -1.48505e-06 0.105646)
(-1.21316e-06 -1.74473e-06 0.105646)
(-7.3649e-07 1.44968e-06 0.105646)
(-7.76541e-07 -1.47063e-06 0.105646)
(5.7656e-05 -5.77158e-05 0.105195)
(-6.14183e-05 6.14499e-05 0.10523)
(-1.70594e-06 -1.17669e-06 0.105646)
(1.44599e-06 -7.25776e-07 0.105646)
(-1.43404e-06 -7.33321e-07 0.105646)
(6.14037e-05 6.14381e-05 0.10523)
(5.73111e-05 5.72967e-05 0.105195)
(-6.08776e-05 -6.08371e-05 0.10523)
(1.86416e-06 1.35834e-06 0.105646)
(-1.86441e-06 1.37695e-06 0.105646)
(1.28447e-06 4.84748e-07 0.105646)
(-1.29107e-06 5.15404e-07 0.105646)
(-5.73048e-05 5.72568e-05 0.105195)
(6.08796e-05 -6.08525e-05 0.10523)
(1.32371e-06 1.82538e-06 0.105646)
(1.36088e-06 -1.85869e-06 0.105646)
(4.55748e-07 1.24532e-06 0.105647)
(5.02041e-07 -1.2843e-06 0.105646)
(-1.35758e-06 -1.83334e-06 0.105646)
(-4.56101e-07 1.24451e-06 0.105647)
(-5.07907e-07 -1.27926e-06 0.105646)
(5.72755e-05 -5.73303e-05 0.105195)
(-6.08462e-05 6.08788e-05 0.10523)
(-1.79857e-06 -1.31805e-06 0.105646)
(1.24363e-06 -4.46337e-07 0.105646)
(-1.24429e-06 -4.63664e-07 0.105646)
(6.08219e-05 6.08593e-05 0.10523)
(5.66597e-05 5.66487e-05 0.105195)
(-5.98457e-05 -5.98054e-05 0.10523)
(2.09238e-06 1.70757e-06 0.105645)
(-2.09961e-06 1.72676e-06 0.105645)
(8.53365e-07 -5.21575e-08 0.105647)
(-8.62703e-07 -2.62808e-08 0.105647)
(-5.66588e-05 5.66137e-05 0.105195)
(5.98465e-05 -5.9822e-05 0.10523)
(1.67633e-06 2.05455e-06 0.105646)
(1.71388e-06 -2.09538e-06 0.105645)
(-8.70664e-08 8.15612e-07 0.105647)
(-3.86263e-08 -8.55977e-07 0.105647)
(-1.72898e-06 -2.08792e-06 0.105645)
(8.42191e-08 8.12242e-07 0.105647)
(3.50634e-08 -8.47651e-07 0.105647)
(5.66376e-05 -5.66881e-05 0.105195)
(-5.9819e-05 5.98502e-05 0.10523)
(-2.05483e-06 -1.69031e-06 0.105646)
(8.09435e-07 9.24367e-08 0.105647)
(-8.11191e-07 7.77041e-08 0.105647)
(5.97935e-05 5.9832e-05 0.10523)
(5.54359e-05 5.54276e-05 0.105196)
(-5.77591e-05 -5.77221e-05 0.105228)
(2.56235e-06 2.41191e-06 0.105645)
(-2.5714e-06 2.4326e-06 0.105645)
(1.03356e-08 -1.10825e-06 0.105649)
(-2.34605e-08 -1.0824e-06 0.105649)
(-5.54351e-05 5.53925e-05 0.105196)
(5.77632e-05 -5.77333e-05 0.105228)
(2.38061e-06 2.52602e-06 0.105645)
(2.4166e-06 -2.5667e-06 0.105645)
(-1.1448e-06 -2.59084e-08 0.105649)
(-1.09291e-06 -1.5426e-08 0.105649)
(-2.42104e-06 -2.5476e-06 0.105645)
(1.14064e-06 -2.34292e-08 0.105649)
(1.09702e-06 -4.16841e-09 0.105649)
(5.54138e-05 -5.54593e-05 0.105196)
(-5.77332e-05 5.77693e-05 0.105228)
(-2.51342e-06 -2.3851e-06 0.105645)
(-2.73864e-08 1.15119e-06 0.105649)
(3.35761e-08 1.14454e-06 0.105649)
(5.77194e-05 5.77539e-05 0.105228)
(5.30226e-05 5.30197e-05 0.105198)
(-5.27033e-05 -5.26642e-05 0.105225)
(3.49398e-06 3.72722e-06 0.105643)
(-3.50405e-06 3.74256e-06 0.105643)
(-1.62703e-06 -3.07794e-06 0.105652)
(1.60979e-06 -3.04841e-06 0.105652)
(-5.3021e-05 5.29894e-05 0.105198)
(5.27102e-05 -5.26767e-05 0.105225)
(3.69292e-06 3.45802e-06 0.105643)
(3.73028e-06 -3.49575e-06 0.105643)
(-3.12449e-06 -1.64889e-06 0.105652)
(-3.07346e-06 1.61992e-06 0.105652)
(-3.7259e-06 -3.47943e-06 0.105643)
(3.10479e-06 -1.65045e-06 0.105652)
(3.06568e-06 1.62382e-06 0.105652)
(5.30109e-05 -5.30443e-05 0.105198)
(-5.26801e-05 5.27063e-05 0.105225)
(-3.44931e-06 -3.69182e-06 0.105643)
(-1.65963e-06 3.12609e-06 0.105652)
(1.65432e-06 3.1146e-06 0.105652)
(5.26543e-05 5.26933e-05 0.105225)
(4.71581e-05 4.71716e-05 0.105203)
(-4.00716e-05 -4.00158e-05 0.105217)
(5.25751e-06 6.12378e-06 0.105641)
(-5.26896e-06 6.14426e-06 0.105641)
(-5.43883e-06 -7.59209e-06 0.105657)
(5.41749e-06 -7.58658e-06 0.105657)
(-4.71539e-05 4.71452e-05 0.105203)
(4.00411e-05 -4.00337e-05 0.105217)
(6.08296e-06 5.23089e-06 0.105641)
(6.12392e-06 -5.25868e-06 0.105641)
(-7.64999e-06 -5.43714e-06 0.105657)
(-7.60517e-06 5.42774e-06 0.105657)
(-6.13344e-06 -5.2421e-06 0.105641)
(7.63198e-06 -5.42309e-06 0.105657)
(7.6013e-06 5.43754e-06 0.105657)
(4.71622e-05 -4.71816e-05 0.105203)
(-4.0055e-05 4.004e-05 0.105217)
(-5.21742e-06 -6.09374e-06 0.105641)
(-5.45249e-06 7.63458e-06 0.105657)
(5.44865e-06 7.6326e-06 0.105657)
(4.00262e-05 4.00537e-05 0.105217)
(3.06569e-05 3.07311e-05 0.105212)
(-3.6813e-05 -3.66241e-05 0.105211)
(7.0407e-06 8.09024e-06 0.105636)
(-7.0684e-06 8.10545e-06 0.105636)
(-3.00974e-05 -4.55948e-05 0.105657)
(3.00961e-05 -4.56129e-05 0.105657)
(-3.06914e-05 3.07134e-05 0.105212)
(3.68134e-05 -3.66369e-05 0.105211)
(7.98184e-06 7.05415e-06 0.105636)
(8.02065e-06 -7.03917e-06 0.105636)
(-4.5798e-05 -3.00284e-05 0.105658)
(-4.57263e-05 3.01116e-05 0.105657)
(-8.04211e-06 -7.02868e-06 0.105636)
(4.57703e-05 -3.00256e-05 0.105658)
(4.57091e-05 3.01169e-05 0.105657)
(3.06759e-05 -3.07131e-05 0.105212)
(-3.67394e-05 3.68085e-05 0.105211)
(-7.03018e-06 -8.03551e-06 0.105636)
(-3.00983e-05 4.57596e-05 0.105658)
(3.0115e-05 4.57813e-05 0.105658)
(3.67179e-05 3.68114e-05 0.105211)
(-3.64504e-05 -3.62687e-05 0.105243)
(-2.93966e-05 -4.03207e-05 0.105638)
(2.93891e-05 -4.034e-05 0.105638)
(3.64472e-05 -3.62746e-05 0.105243)
(-4.05198e-05 -2.92971e-05 0.105638)
(-4.04665e-05 2.93981e-05 0.105638)
(4.24914e-05 -4.23448e-05 0.105961)
(-4.2429e-05 4.24974e-05 0.105961)
(4.24649e-05 4.25142e-05 0.105961)
(4.04569e-05 2.94061e-05 0.105638)
(-3.63935e-05 3.64398e-05 0.105243)
(2.93967e-05 4.05125e-05 0.105638)
(-1.37905e-06 -1.4416e-06 0.105988)
(1.39869e-06 -1.38008e-06 0.105988)
(-1.40339e-06 1.37857e-06 0.105988)
(1.3959e-06 1.36629e-06 0.105988)
(9.26713e-08 -1.06956e-05 0.0979294)
(4.55452e-07 8.3343e-06 0.0870036)
(-1.72079e-07 1.02572e-05 0.0978762)
(-1.57488e-06 -7.57451e-06 0.0870593)
(-2.46094e-06 4.13461e-06 0.0746335)
(2.69798e-06 -3.71935e-06 0.0746858)
(-1.07844e-05 8.53947e-08 0.0979278)
(8.22451e-06 4.29887e-07 0.0870027)
(1.03264e-05 -1.52188e-07 0.0978769)
(-7.59463e-06 -1.55801e-06 0.0870599)
(1.40729e-06 -1.39246e-06 0.105988)
(-1.40313e-06 1.40057e-06 0.105988)
(1.39723e-06 1.38455e-06 0.105988)
(-1.42187e-06 -1.42783e-06 0.105988)
(1.42662e-06 -1.4123e-06 0.105988)
(-1.41143e-06 1.41783e-06 0.105988)
(1.42011e-06 1.41517e-06 0.105988)
(2.21218e-05 3.22431e-07 0.103572)
(-1.92968e-05 4.77472e-06 0.0988242)
(-1.30518e-06 -3.43213e-07 0.105871)
(-1.02059e-06 1.60563e-06 0.105646)
(-2.23873e-05 -3.18685e-07 0.103531)
(1.78531e-05 -5.68543e-06 0.0989103)
(-1.29135e-06 -3.35526e-07 0.105871)
(3.99529e-06 -2.4274e-06 0.0746298)
(-3.60152e-06 2.59514e-06 0.0746872)
(3.23752e-07 2.20935e-05 0.103572)
(-3.25484e-07 -1.26904e-06 0.105871)
(4.8035e-06 -1.93432e-05 0.0988243)
(1.61751e-06 -1.01995e-06 0.105646)
(-3.2636e-07 -2.23891e-05 0.103531)
(-3.17292e-07 -1.27803e-06 0.105871)
(-5.72991e-06 1.79242e-05 0.0989086)
(-5.73142e-06 -5.86535e-06 0.0930801)
(-5.86056e-06 -5.71947e-06 0.0930787)
(6.21674e-05 6.21985e-05 0.105229)
(4.8274e-06 5.7004e-06 0.0931414)
(5.70545e-06 4.82726e-06 0.0931391)
(9.32763e-08 -1.07011e-05 0.0979297)
(4.17485e-07 8.28818e-06 0.0870035)
(-1.70249e-07 1.02649e-05 0.0978766)
(-1.61305e-06 -7.60463e-06 0.0870594)
(-2.47006e-06 4.06654e-06 0.0746328)
(2.68889e-06 -3.77636e-06 0.0746855)
(-1.07771e-05 8.26165e-08 0.0979281)
(8.23229e-06 3.99499e-07 0.0870028)
(1.03516e-05 -1.57772e-07 0.0978773)
(-7.5672e-06 -1.5771e-06 0.0870599)
(1.42799e-06 -1.41499e-06 0.105988)
(-1.41565e-06 1.42328e-06 0.105988)
(1.42242e-06 1.41934e-06 0.105988)
(-1.42924e-06 -1.43264e-06 0.105988)
(1.44067e-06 -1.42406e-06 0.105988)
(-1.41929e-06 1.43585e-06 0.105988)
(1.42981e-06 1.42994e-06 0.105988)
(2.21486e-05 3.22752e-07 0.103572)