/*--------------------------------*- C++ -*----------------------------------*\
| =========                 |                                                 |
| \\      /  F ield         | OpenFOAM: The Open Source CFD Toolbox           |
|  \\    /   O peration     | Version:  v1912                                 |
|   \\  /    A nd           | Website:  www.openfoam.com                      |
|    \\/     M anipulation  |                                                 |
\*---------------------------------------------------------------------------*/
FoamFile
{
    version     2.0;
    format      ascii;
    class       volScalarField;
    location    "60";
    object      epsilon;
}
// * * * * * * * * * * * * * * * * * * * * * * * * * * * * * * * * * * * * * //

dimensions      [0 2 -3 0 0 0 0];


internalField   nonuniform List<scalar> 
57566
(
1.9093e-05
5.65728e-07
2.10513e-07
1.84181e-07
1.84658e-06
2.55602e-07
4.17802e-06
4.17969e-06
1.90896e-05
1.9092e-05
2.55977e-07
4.17878e-06
4.18049e-06
2.27416e-06
8.70486e-06
2.27434e-06
8.70719e-06
5.66063e-07
2.10524e-07
1.84758e-06
1.84188e-07
5.66102e-07
2.10551e-07
1.84828e-06
1.84193e-07
1.90915e-05
2.5596e-07
4.18029e-06
4.17866e-06
1.90894e-05
2.27347e-06
8.70624e-06
5.65713e-07
2.10551e-07
1.8419e-07
1.84667e-06
2.27422e-06
8.70737e-06
5.6615e-07
2.10513e-07
1.84786e-06
1.84186e-07
2.27403e-06
8.70633e-06
5.66006e-07
2.10551e-07
1.8419e-07
1.84777e-06
5.65678e-07
2.10537e-07
1.84186e-07
1.84646e-06
2.27344e-06
8.7066e-06
5.66095e-07
2.10498e-07
1.84775e-06
1.84179e-07
2.27436e-06
8.70688e-06
5.65969e-07
2.10538e-07
1.84185e-07
1.84737e-06
2.27406e-06
8.70665e-06
2.55596e-07
4.17924e-06
4.17817e-06
1.90931e-05
1.90916e-05
2.56e-07
4.1798e-06
4.17863e-06
1.90919e-05
5.65737e-07
2.10519e-07
1.84185e-07
1.84675e-06
2.27353e-06
8.70671e-06
2.27351e-06
8.70773e-06
5.66019e-07
2.10513e-07
1.84181e-07
1.8475e-06
5.66035e-07
2.10519e-07
1.84185e-07
1.84767e-06
2.27409e-06
8.70676e-06
2.27408e-06
8.70778e-06
1.90928e-05
1.90938e-05
2.56008e-07
4.17847e-06
4.18013e-06
1.90916e-05
1.90926e-05
1.90921e-05
8.62451e-06
2.21517e-05
2.21514e-05
2.215e-05
2.21497e-05
8.62399e-06
2.57315e-06
8.69754e-06
4.17895e-06
1.00601e-06
1.00672e-06
8.69756e-06
2.57225e-06
2.57726e-06
8.70157e-06
4.18058e-06
1.00672e-06
1.00742e-06
8.70158e-06
2.57638e-06
1.90909e-05
1.90934e-05
8.62302e-06
2.21489e-05
2.21493e-05
8.62376e-06
2.21507e-05
2.21505e-05
2.57205e-06
8.69736e-06
1.0064e-06
4.17795e-06
2.57309e-06
8.69741e-06
1.00587e-06
2.57602e-06
8.70195e-06
1.00723e-06
4.17975e-06
2.57735e-06
8.70168e-06
1.00656e-06
1.26407e-05
1.14885e-05
3.01189e-06
2.27339e-06
1.26405e-05
1.14884e-05
3.01122e-06
2.2675e-05
6.2207e-06
8.70451e-06
2.26722e-05
6.21938e-06
1.26417e-05
1.14888e-05
3.01275e-06
2.27357e-06
1.26416e-05
1.14887e-05
3.01214e-06
2.26787e-05
6.22471e-06
8.70689e-06
2.26764e-05
6.22349e-06
1.90929e-05
8.62253e-06
2.21481e-05
2.21486e-05
8.62347e-06
2.21496e-05
2.21502e-05
2.57606e-06
8.70131e-06
1.00716e-06
4.17959e-06
1.00656e-06
2.57729e-06
8.70125e-06
2.57174e-06
8.69767e-06
1.00634e-06
4.17784e-06
2.57294e-06
8.69759e-06
1.00573e-06
1.90908e-05
1.26415e-05
2.27433e-06
1.14896e-05
3.01158e-06
1.14898e-05
3.01256e-06
1.26414e-05
2.26745e-05
6.22026e-06
8.70657e-06
6.22202e-06
2.2677e-05
1.26415e-05
3.01224e-06
1.14898e-05
2.2735e-06
1.26414e-05
3.0116e-06
1.14897e-05
2.26755e-05
6.22322e-06
8.70706e-06
2.26733e-05
6.22204e-06
1.26408e-05
1.14895e-05
3.01222e-06
2.27359e-06
1.26408e-05
1.14893e-05
3.01171e-06
2.2676e-05
6.22103e-06
8.70602e-06
2.26734e-05
6.22018e-06
1.26419e-05
2.27439e-06
1.14888e-05
3.0117e-06
1.1489e-05
3.01258e-06
1.26419e-05
2.2676e-05
6.2207e-06
8.70689e-06
6.22225e-06
2.26781e-05
1.26414e-05
3.01256e-06
1.14892e-05
2.27356e-06
1.26413e-05
3.0119e-06
1.1489e-05
2.26773e-05
6.22385e-06
8.70654e-06
2.2675e-05
6.22262e-06
1.26413e-05
1.1489e-05
3.01228e-06
2.27357e-06
1.26413e-05
1.14889e-05
3.01182e-06
2.26771e-05
6.2213e-06
8.70639e-06
2.26748e-05
6.22057e-06
8.62438e-06
2.21514e-05
2.21514e-05
2.21498e-05
2.21497e-05
8.62385e-06
2.57745e-06
8.70135e-06
4.18028e-06
1.0065e-06
8.70138e-06
1.00721e-06
2.57647e-06
2.57332e-06
8.69766e-06
4.17905e-06
1.00585e-06
1.00652e-06
8.6977e-06
2.57235e-06
1.90918e-05
1.90929e-05
8.62395e-06
2.21487e-05
2.21486e-05
8.62429e-06
2.21503e-05
2.21503e-05
2.57685e-06
8.70131e-06
1.00694e-06
4.17929e-06
1.00657e-06
2.57749e-06
8.70126e-06
2.57273e-06
8.69763e-06
1.00627e-06
4.17819e-06
2.57337e-06
8.69756e-06
1.00592e-06
1.90931e-05
1.2642e-05
2.27438e-06
3.01173e-06
1.14897e-05
3.0126e-06
1.14899e-05
1.2642e-05
2.2676e-05
6.22064e-06
8.707e-06
6.22218e-06
2.26781e-05
1.26416e-05
2.27438e-06
3.01184e-06
1.14899e-05
3.0127e-06
1.14901e-05
1.26416e-05
2.26753e-05
6.22275e-06
8.70802e-06
6.22425e-06
2.26774e-05
1.26413e-05
3.01231e-06
1.14896e-05
2.27365e-06
1.26413e-05
3.01185e-06
1.14894e-05
2.26771e-05
6.22123e-06
8.7065e-06
2.26748e-05
6.2205e-06
1.2641e-05
3.01241e-06
1.14898e-05
2.27364e-06
1.2641e-05
3.01196e-06
1.14896e-05
2.26764e-05
6.22332e-06
8.70752e-06
2.26741e-05
6.22262e-06
1.90914e-05
1.90924e-05
8.62397e-06
2.2149e-05
2.21487e-05
8.6244e-06
2.21506e-05
2.21503e-05
2.57265e-06
8.69752e-06
1.00641e-06
4.17802e-06
2.57328e-06
1.00604e-06
8.69747e-06
2.57679e-06
8.70151e-06
1.00712e-06
4.17969e-06
2.5774e-06
1.00676e-06
8.70147e-06
1.90928e-05
1.90938e-05
1.72561e-07
1.65013e-07
1.65013e-07
1.61274e-07
1.72559e-07
1.65014e-07
1.65011e-07
1.61273e-07
1.72543e-07
1.65002e-07
1.65001e-07
1.61264e-07
1.7256e-07
1.65015e-07
1.65015e-07
1.61273e-07
1.7256e-07
1.65013e-07
1.65013e-07
1.61273e-07
1.72558e-07
1.65013e-07
1.65011e-07
1.61273e-07
3.01833e-07
5.66136e-07
2.72112e-07
7.10939e-07
2.72345e-07
7.11664e-07
3.01422e-07
3.85667e-07
1.17063e-06
1.84787e-06
5.38233e-07
5.38769e-07
1.17181e-06
3.85071e-07
8.17065e-07
2.55989e-07
3.92441e-07
3.92517e-07
3.92829e-07
3.92914e-07
8.16349e-07
8.16304e-07
2.5559e-07
3.92856e-07
3.92923e-07
8.17044e-07
3.92464e-07
3.92511e-07
3.01362e-07
7.11905e-07
2.72315e-07
5.65672e-07
3.01768e-07
7.1137e-07
2.72085e-07
3.84999e-07
1.17224e-06
5.388e-07
1.84648e-06
5.38269e-07
3.85591e-07
1.17133e-06
3.01411e-07
7.12125e-07
2.72323e-07
5.65712e-07
3.01815e-07
7.1158e-07
2.72095e-07
3.85145e-07
1.17305e-06
5.38948e-07
1.84701e-06
3.85734e-07
1.17213e-06
5.38408e-07
8.16213e-07
2.55572e-07
3.92902e-07
3.92827e-07
3.92499e-07
8.16952e-07
3.92421e-07
3.01813e-07
5.66125e-07
2.7211e-07
7.11329e-07
2.72342e-07
7.12002e-07
3.01406e-07
3.85681e-07
1.17059e-06
1.84785e-06
5.38384e-07
1.17172e-06
3.85088e-07
5.38928e-07
3.01407e-07
7.12073e-07
2.72343e-07
5.65738e-07
3.01813e-07
7.11461e-07
2.72111e-07
3.85076e-07
1.17269e-06
5.38936e-07
1.84679e-06
5.38373e-07
3.8567e-07
1.17169e-06
3.01416e-07
2.72358e-07
7.11582e-07
5.65755e-07
3.01821e-07
2.72127e-07
7.11056e-07
3.85086e-07
1.1714e-06
5.38929e-07
1.84685e-06
3.85651e-07
1.17073e-06
5.38424e-07
3.01805e-07
5.66083e-07
2.72092e-07
7.10948e-07
2.72321e-07
7.11668e-07
3.014e-07
3.85675e-07
1.17066e-06
1.84782e-06
5.3825e-07
5.38789e-07
1.17186e-06
3.85083e-07
3.01407e-07
7.11945e-07
2.72324e-07
5.65694e-07
3.01818e-07
7.1112e-07
2.72094e-07
3.85084e-07
1.17284e-06
5.38762e-07
1.84638e-06
3.85678e-07
5.38215e-07
1.17188e-06
3.01413e-07
2.72338e-07
7.11373e-07
5.65717e-07
3.01815e-07
2.72108e-07
7.10992e-07
3.85081e-07
1.17148e-06
5.38786e-07
1.84643e-06
3.85644e-07
1.17081e-06
5.38287e-07
8.17113e-07
2.55982e-07
3.92515e-07
3.92447e-07
3.92841e-07
3.92917e-07
8.1639e-07
8.16352e-07
2.55609e-07
3.92874e-07
3.92801e-07
3.92543e-07
8.16956e-07
3.92474e-07
3.01838e-07
5.66157e-07
2.72112e-07
7.10977e-07
2.72344e-07
7.11711e-07
3.01426e-07
3.8574e-07
1.17096e-06
1.84795e-06
5.38389e-07
5.38937e-07
1.17215e-06
3.8514e-07
3.01432e-07
2.72363e-07
7.1136e-07
5.65766e-07
3.01842e-07
2.72128e-07
7.10977e-07
3.85075e-07
1.17145e-06
5.3877e-07
1.84657e-06
3.85638e-07
5.3827e-07
1.17078e-06
3.01438e-07
2.72362e-07
7.11407e-07
5.65775e-07
3.01847e-07
2.72127e-07
7.11022e-07
3.85138e-07
1.17177e-06
5.38931e-07
1.84671e-06
3.85711e-07
1.17111e-06
5.38424e-07
8.16322e-07
2.55616e-07
3.92796e-07
3.92877e-07
8.16921e-07
3.92473e-07
3.9255e-07
1.90902e-05
1.90916e-05
2.55948e-07
4.18111e-06
4.18279e-06
2.2757e-06
8.70532e-06
2.27584e-06
5.66333e-07
2.1041e-07
1.84837e-06
1.84012e-07
5.66367e-07
1.84017e-07
2.2758e-06
8.70725e-06
5.6642e-07
2.10383e-07
1.84877e-06
1.84005e-07
2.27582e-06
8.7067e-06
5.6641e-07
2.104e-07
1.84011e-07
1.84886e-06
1.90917e-05
2.55935e-07
4.1825e-06
4.18123e-06
1.90911e-05
5.66458e-07
2.10379e-07
1.84005e-07
1.84851e-06
5.66406e-07
1.84011e-07
2.27597e-06
8.70702e-06
2.2758e-06
1.90907e-05
1.90922e-05
8.62792e-06
2.21489e-05
2.21492e-05
8.62813e-06
2.2151e-05
2.21513e-05
2.57605e-06
8.69807e-06
1.00734e-06
4.18081e-06
2.5764e-06
8.69807e-06
1.00708e-06
2.58e-06
8.70167e-06
1.00839e-06
4.18249e-06
2.58035e-06
8.70168e-06
1.00812e-06
1.26379e-05
1.14845e-05
3.01477e-06
2.27537e-06
1.26379e-05
1.14846e-05
3.01431e-06
2.2675e-05
6.22414e-06
8.70507e-06
2.26718e-05
6.22347e-06
1.26388e-05
1.14849e-05
3.01544e-06
2.27551e-06
1.26387e-05
1.1485e-05
3.01503e-06
1.26386e-05
3.0151e-06
1.14856e-05
2.27552e-06
1.26385e-05
3.0147e-06
1.14858e-05
2.26756e-05
6.22652e-06
8.70711e-06
2.26727e-05
6.22598e-06
1.26386e-05
1.14855e-05
3.0153e-06
2.27556e-06
1.26385e-05
1.14856e-05
3.01483e-06
2.2677e-05
6.22506e-06
8.70653e-06
2.26738e-05
6.22437e-06
1.90921e-05
8.62947e-06
2.21501e-05
2.215e-05
8.62965e-06
2.21522e-05
2.21522e-05
2.57947e-06
8.70141e-06
1.00806e-06
4.18204e-06
1.00778e-06
2.5798e-06
8.70137e-06
2.57532e-06
8.69767e-06
1.00739e-06
4.18092e-06
2.57567e-06
8.69767e-06
1.00711e-06
1.90917e-05
1.26384e-05
3.01544e-06
1.1485e-05
2.27563e-06
1.26384e-05
3.01495e-06
1.14851e-05
2.26779e-05
6.22531e-06
8.70687e-06
2.26751e-05
6.2248e-06
1.26378e-05
3.01512e-06
1.14854e-05
2.27555e-06
1.26378e-05
3.01462e-06
1.14856e-05
1.72362e-07
1.64812e-07
1.6481e-07
1.61066e-07
1.64824e-07
1.61074e-07
1.72379e-07
1.64822e-07
1.64825e-07
1.61074e-07
1.64823e-07
1.61074e-07
8.17147e-07
2.55553e-07
3.93005e-07
3.93226e-07
8.17198e-07
3.92628e-07
3.92836e-07
3.01359e-07
7.11874e-07
2.72253e-07
5.65993e-07
3.01768e-07
7.11423e-07
2.72015e-07
3.851e-07
1.17223e-06
5.39153e-07
1.84746e-06
5.38569e-07
3.85651e-07
1.17136e-06
3.01401e-07
7.12104e-07
2.72264e-07
5.66027e-07
3.01813e-07
7.11659e-07
2.72025e-07
3.01394e-07
7.12019e-07
2.72273e-07
5.66079e-07
3.0181e-07
7.11533e-07
2.72037e-07
3.85175e-07
1.17267e-06
5.39321e-07
1.84772e-06
5.38729e-07
3.85735e-07
1.17177e-06
3.01399e-07
2.72275e-07
7.1201e-07
5.66077e-07
3.01807e-07
2.72041e-07
7.11571e-07
3.85173e-07
1.1725e-06
5.39308e-07
1.84785e-06
3.85731e-07
1.17163e-06
5.38714e-07
8.17016e-07
2.5554e-07
3.93079e-07
3.93015e-07
3.92698e-07
8.17046e-07
3.92638e-07
3.0142e-07
2.72281e-07
7.1209e-07
5.6611e-07
3.01834e-07
2.72045e-07
7.11591e-07
3.85175e-07
1.17257e-06
5.39183e-07
1.84763e-06
3.85735e-07
5.38592e-07
1.17169e-06
3.0139e-07
2.72265e-07
7.1201e-07
5.66068e-07
3.01803e-07
2.72032e-07
7.11527e-07
1.72359e-07
2.10361e-07
2.10382e-07
2.55943e-07
1.72357e-07
2.10366e-07
2.10375e-07
2.55939e-07
2.10399e-07
2.10409e-07
2.10411e-07
2.10411e-07
2.55921e-07
2.55524e-07
2.10396e-07
2.10366e-07
2.10398e-07
2.10373e-07
2.10377e-07
2.10376e-07
2.55543e-07
2.5594e-07
2.1041e-07
2.10416e-07
2.55926e-07
2.10374e-07
2.10397e-07
2.10403e-07
2.55934e-07
2.10382e-07
2.27509e-06
8.70536e-06
2.27572e-06
8.70556e-06
1.90918e-05
1.90932e-05
1.72365e-07
1.7237e-07
1.72365e-07
1.72358e-07
1.72367e-07
1.72371e-07
1.72367e-07
5.66084e-07
1.84838e-06
1.83996e-07
2.1037e-07
1.84724e-06
1.84003e-07
5.66392e-07
5.66155e-07
1.84001e-07
1.84854e-06
2.10386e-07
1.84008e-07
5.66468e-07
1.84745e-06
4.18087e-06
4.18252e-06
2.55545e-07
4.18021e-06
4.18187e-06
2.27499e-06
8.70548e-06
2.27569e-06
8.70515e-06
1.90917e-05
1.90919e-05
2.27514e-06
8.70712e-06
8.70709e-06
2.27579e-06
1.72373e-07
1.72379e-07
1.72374e-07
5.66079e-07
1.84837e-06
1.83998e-07
2.10371e-07
5.66389e-07
1.84756e-06
1.84003e-07
1.90917e-05
1.90932e-05
5.66144e-07
1.84e-07
1.84855e-06
2.10377e-07
5.66458e-07
1.84003e-07
1.84742e-06
4.18087e-06
4.18251e-06
2.55543e-07
4.18045e-06
4.1821e-06
2.2752e-06
8.70744e-06
8.70726e-06
2.2759e-06
5.66047e-07
1.84843e-06
1.84003e-07
2.10429e-07
1.8401e-07
5.66347e-07
1.84759e-06
5.66076e-07
1.84881e-06
1.84007e-07
2.10414e-07
1.84771e-06
1.84013e-07
5.66387e-07
2.2755e-06
8.70532e-06
2.27499e-06
8.70568e-06
2.27553e-06
8.70724e-06
8.70737e-06
2.2751e-06
5.66295e-07
2.10414e-07
1.84742e-06
1.84005e-07
1.84007e-07
5.66042e-07
1.84844e-06
5.66325e-07
2.10412e-07
1.8477e-06
1.84008e-07
1.84858e-06
1.8401e-07
5.66075e-07
4.18292e-06
4.18095e-06
2.55523e-07
4.1822e-06
4.18019e-06
1.90892e-05
1.90907e-05
1.90932e-05
1.90921e-05
2.55926e-07
4.18216e-06
4.18016e-06
4.18248e-06
4.18054e-06
1.90907e-05
1.90895e-05
2.2752e-06
8.707e-06
8.7068e-06
2.27591e-06
5.66078e-07
1.84001e-07
1.84845e-06
2.10401e-07
1.84007e-07
1.84733e-06
5.66389e-07
2.27518e-06
8.70705e-06
8.70686e-06
2.27588e-06
5.66329e-07
2.10368e-07
1.84724e-06
1.83998e-07
1.84814e-06
1.84001e-07
5.66085e-07
2.27561e-06
8.70679e-06
8.70694e-06
2.2752e-06
5.66324e-07
2.10398e-07
1.84003e-07
1.84733e-06
1.84004e-07
1.84821e-06
5.66078e-07
2.27558e-06
8.70684e-06
8.70698e-06
2.27518e-06
5.66103e-07
1.83999e-07
1.8487e-06
2.10379e-07
1.84006e-07
1.8476e-06
5.66411e-07
2.2753e-06
8.70723e-06
2.27601e-06
8.70696e-06
2.27516e-06
8.70752e-06
8.70736e-06
2.27582e-06
5.66399e-07
2.10388e-07
1.84001e-07
1.84745e-06
1.84006e-07
5.66148e-07
1.84838e-06
5.66346e-07
2.10377e-07
1.84002e-07
1.8476e-06
1.84002e-07
1.84847e-06
5.66104e-07
2.2757e-06
8.70688e-06
2.27528e-06
8.70709e-06
2.27552e-06
8.70735e-06
8.70748e-06
2.27516e-06
1.9091e-05
1.90924e-05
1.90917e-05
1.90932e-05
2.55943e-07
4.18024e-06
4.18189e-06
4.1805e-06
4.18214e-06
1.90924e-05
1.90913e-05
1.90932e-05
1.90921e-05
1.90908e-05
1.90916e-05
1.90913e-05
1.9093e-05
4.18155e-06
4.1828e-06
2.55551e-07
4.18054e-06
4.18221e-06
2.27513e-06
8.70735e-06
2.27551e-06
8.7072e-06
5.66026e-07
1.84826e-06
1.84011e-07
2.10409e-07
5.6628e-07
1.84728e-06
1.8401e-07
5.6606e-07
1.84858e-06
1.84015e-07
2.10416e-07
5.66313e-07
1.84818e-06
1.84014e-07
4.18244e-06
4.18052e-06
2.55524e-07
4.18237e-06
4.18032e-06
1.90895e-05
1.90892e-05
5.66109e-07
1.84877e-06
1.84e-07
2.10381e-07
1.84768e-06
1.84003e-07
5.66414e-07
2.27517e-06
8.70672e-06
8.70653e-06
2.27583e-06
5.66107e-07
1.84006e-07
1.84884e-06
2.10398e-07
1.84008e-07
1.84771e-06
5.66414e-07
2.27547e-06
8.70692e-06
2.27561e-06
8.70674e-06
5.66077e-07
1.8401e-07
1.84821e-06
2.10404e-07
5.66323e-07
1.8401e-07
1.84781e-06
2.27545e-06
8.70697e-06
2.27559e-06
8.70681e-06
4.18254e-06
4.18138e-06
2.55539e-07
4.1818e-06
4.18063e-06
1.90911e-05
1.90925e-05
5.66102e-07
1.84009e-07
1.84848e-06
2.10382e-07
5.66346e-07
1.84008e-07
1.84786e-06
2.27527e-06
8.70701e-06
2.27569e-06
8.70686e-06
2.27516e-06
8.70747e-06
2.27552e-06
8.70732e-06
1.90913e-05
1.90912e-05
1.9092e-05
1.9092e-05
1.26379e-05
1.14848e-05
2.27566e-06
3.01406e-06
1.14848e-05
3.01463e-06
1.26384e-05
2.26752e-05
6.22419e-06
8.70532e-06
6.22293e-06
2.26718e-05
1.26382e-05
2.27486e-06
1.14845e-05
3.01482e-06
1.14848e-05
3.01383e-06
1.26378e-05
2.26723e-05
6.22312e-06
8.70562e-06
6.22389e-06
2.26752e-05
1.90934e-05
1.90919e-05
8.62977e-06
2.21518e-05
2.21515e-05
2.21496e-05
2.21493e-05
8.62877e-06
2.57488e-06
1.00733e-06
4.18005e-06
8.69761e-06
1.00675e-06
8.69763e-06
2.57558e-06
2.57903e-06
1.00803e-06
4.18172e-06
8.70157e-06
1.00746e-06
8.70159e-06
2.57972e-06
2.57534e-06
8.69761e-06
4.18068e-06
1.00685e-06
1.00724e-06
8.6976e-06
2.57464e-06
2.57948e-06
8.70157e-06
4.18232e-06
1.00756e-06
1.00794e-06
8.70157e-06
2.57879e-06
8.62932e-06
2.215e-05
2.21497e-05
2.2152e-05
2.21516e-05
8.62973e-06
1.26377e-05
2.27555e-06
1.14846e-05
3.01397e-06
1.14848e-05
3.01454e-06
1.26383e-05
2.2675e-05
6.22417e-06
8.7052e-06
2.26719e-05
6.2228e-06
1.26381e-05
2.27484e-06
1.14845e-05
3.01477e-06
1.26379e-05
1.14848e-05
3.01373e-06
2.2672e-05
6.22305e-06
8.70527e-06
6.22389e-06
2.26749e-05
1.90933e-05
1.90918e-05
1.26384e-05
3.01436e-06
1.14857e-05
2.27565e-06
3.01488e-06
1.14859e-05
1.26389e-05
2.26756e-05
8.70705e-06
6.22657e-06
6.22542e-06
2.26728e-05
2.26729e-05
6.22563e-06
8.70719e-06
6.22631e-06
2.26756e-05
1.26387e-05
2.27499e-06
3.0151e-06
1.14857e-05
3.01414e-06
1.1486e-05
1.26385e-05
1.90933e-05
1.90918e-05
8.62999e-06
2.21525e-05
2.21522e-05
2.21501e-05
2.21498e-05
8.62961e-06
2.57481e-06
1.00732e-06
8.69752e-06
4.18005e-06
2.5755e-06
1.00674e-06
8.69754e-06
2.57896e-06
1.00802e-06
8.70152e-06
4.1817e-06
2.57963e-06
1.00745e-06
8.70154e-06
8.62928e-06
2.21498e-05
2.21495e-05
8.62943e-06
2.21522e-05
2.21518e-05
2.5753e-06
8.69753e-06
4.18068e-06
1.00697e-06
1.00723e-06
8.69756e-06
2.575e-06
2.57944e-06
8.70155e-06
4.18232e-06
1.00768e-06
1.00793e-06
8.70154e-06
2.57914e-06
1.26386e-05
1.14852e-05
3.01481e-06
2.27575e-06
1.14852e-05
3.01533e-06
1.26391e-05
2.26785e-05
8.70727e-06
6.22793e-06
6.22669e-06
2.26758e-05
2.26757e-05
6.22684e-06
8.70739e-06
6.22756e-06
2.26784e-05
1.26389e-05
2.27504e-06
1.1485e-05
3.01559e-06
1.14854e-05
3.0146e-06
1.26387e-05
1.26383e-05
1.14849e-05
2.27492e-06
3.01441e-06
1.26381e-05
1.14849e-05
3.01383e-06
2.26723e-05
6.22305e-06
8.70543e-06
2.2675e-05
6.22387e-06
1.26382e-05
2.27554e-06
1.14846e-05
3.01397e-06
1.26383e-05
1.14848e-05
3.01456e-06
2.26753e-05
6.22361e-06
8.70535e-06
2.26722e-05
6.22284e-06
1.2639e-05
1.14854e-05
3.01509e-06
2.27501e-06
1.26388e-05
1.14854e-05
3.01456e-06
2.26756e-05
8.70737e-06
6.22677e-06
6.22748e-06
2.26784e-05
2.26784e-05
6.22724e-06
8.70721e-06
2.26756e-05
6.22654e-06
1.26389e-05
2.27564e-06
1.14851e-05
3.01476e-06
1.14853e-05
3.0153e-06
1.26391e-05
8.62897e-06
2.2151e-05
2.21514e-05
2.21487e-05
2.21491e-05
8.62808e-06
2.57878e-06
1.0081e-06
4.18209e-06
8.70136e-06
8.70132e-06
1.00753e-06
2.57947e-06
2.57453e-06
1.00723e-06
4.18005e-06
8.69767e-06
1.00665e-06
8.69763e-06
2.57522e-06
2.57924e-06
8.70131e-06
4.18269e-06
1.00761e-06
8.70135e-06
1.008e-06
2.57856e-06
2.57499e-06
8.69762e-06
4.18074e-06
1.00673e-06
1.00713e-06
8.69766e-06
2.57431e-06
8.62843e-06
2.21488e-05
2.21492e-05
2.21509e-05
2.21513e-05
8.62875e-06
1.90909e-05
1.90894e-05
1.90919e-05
1.90933e-05
8.62863e-06
2.21489e-05
2.21492e-05
8.62874e-06
2.21511e-05
2.21515e-05
2.57972e-06
1.00761e-06
4.18264e-06
8.70126e-06
1.008e-06
8.7013e-06
2.57857e-06
2.57545e-06
1.00673e-06
4.18071e-06
8.69758e-06
8.69761e-06
1.00712e-06
2.57431e-06
2.5788e-06
8.70134e-06
1.00791e-06
4.18202e-06
1.00752e-06
2.57949e-06
8.70128e-06
2.57454e-06
8.69765e-06
1.00703e-06
4.18e-06
2.57523e-06
8.6976e-06
1.00664e-06
8.62864e-06
2.21514e-05
2.21518e-05
2.21491e-05
2.21494e-05
8.62854e-06
1.90893e-05
1.90909e-05
1.26383e-05
3.01463e-06
1.14854e-05
2.27576e-06
3.01517e-06
1.14855e-05
1.26388e-05
2.26774e-05
8.70682e-06
6.22723e-06
6.226e-06
2.26746e-05
2.26746e-05
6.22611e-06
8.70697e-06
6.22685e-06
2.26772e-05
1.26387e-05
2.27505e-06
3.01542e-06
1.14851e-05
3.01444e-06
1.14856e-05
1.26385e-05
1.26388e-05
1.14852e-05
3.01463e-06
2.27573e-06
1.14853e-05
3.01517e-06
1.26393e-05
2.26783e-05
8.70688e-06
6.22555e-06
6.22431e-06
2.26755e-05
2.26755e-05
6.22442e-06
8.70701e-06
6.22518e-06
2.26782e-05
1.26391e-05
2.27503e-06
1.1485e-05
3.01542e-06
1.14854e-05
3.01443e-06
1.26389e-05
1.26387e-05
3.01492e-06
1.14855e-05
2.27506e-06
1.26385e-05
3.0144e-06
1.14855e-05
2.26744e-05
8.70694e-06
6.22605e-06
6.22674e-06
2.26772e-05
2.26772e-05
6.2265e-06
8.70677e-06
2.26744e-05
6.22582e-06
1.26387e-05
2.27576e-06
3.0146e-06
1.14854e-05
3.01513e-06
1.14854e-05
1.26388e-05
1.26392e-05
1.14853e-05
3.01492e-06
2.27504e-06
1.26389e-05
1.14853e-05
3.01439e-06
2.26753e-05
8.70699e-06
6.22437e-06
6.22508e-06
2.26781e-05
2.26781e-05
6.22484e-06
8.70683e-06
2.26753e-05
6.22415e-06
1.26391e-05
2.27574e-06
1.14852e-05
3.01459e-06
1.14852e-05
3.01513e-06
1.26393e-05
1.26383e-05
1.14853e-05
2.27585e-06
3.01473e-06
3.01531e-06
1.14854e-05
1.26388e-05
2.26783e-05
6.22564e-06
8.70702e-06
6.22441e-06
2.26756e-05
1.26387e-05
2.27514e-06
3.01558e-06
1.14851e-05
3.01453e-06
1.14854e-05
1.26385e-05
2.26755e-05
6.22453e-06
8.70716e-06
6.22527e-06
2.26782e-05
1.26376e-05
3.01439e-06
1.14857e-05
2.27566e-06
3.01499e-06
1.14857e-05
1.26382e-05
2.26752e-05
8.70736e-06
6.2265e-06
6.22513e-06
2.26721e-05
2.26721e-05
6.2253e-06
8.70749e-06
6.22618e-06
2.2675e-05
1.2638e-05
2.27501e-06
3.01525e-06
1.14855e-05
3.01419e-06
1.14858e-05
1.26378e-05
1.26387e-05
1.14854e-05
2.27514e-06
3.01506e-06
1.26385e-05
3.01448e-06
1.14854e-05
2.26753e-05
6.22446e-06
8.70702e-06
6.22517e-06
2.26781e-05
1.26386e-05
2.27585e-06
3.01466e-06
1.14853e-05
3.01525e-06
1.14854e-05
1.26388e-05
2.26782e-05
6.22494e-06
8.70689e-06
2.26753e-05
6.22426e-06
1.2638e-05
3.01475e-06
1.14861e-05
2.27502e-06
1.26378e-05
3.01416e-06
1.1486e-05
2.26719e-05
8.70748e-06
6.22528e-06
6.22614e-06
2.2675e-05
2.26751e-05
6.22589e-06
8.70733e-06
2.26719e-05
6.22505e-06
1.2638e-05
2.27567e-06
3.01436e-06
1.14858e-05
3.01497e-06
1.14858e-05
1.26382e-05
1.90926e-05
1.90912e-05
1.90933e-05
1.90919e-05
8.62905e-06
2.21495e-05
2.21492e-05
8.62933e-06
2.21517e-05
2.21513e-05
2.57574e-06
1.00684e-06
4.1807e-06
8.69754e-06
2.57457e-06
1.00723e-06
8.69753e-06
2.57988e-06
1.00755e-06
4.18235e-06
8.70153e-06
2.57871e-06
1.00794e-06
8.70152e-06
2.57484e-06
8.69758e-06
1.00714e-06
4.18005e-06
2.57556e-06
1.00675e-06
8.69757e-06
2.57899e-06
8.70155e-06
1.00784e-06
4.18171e-06
2.57969e-06
1.00746e-06
8.70155e-06
8.62908e-06
2.21519e-05
2.21515e-05
8.62884e-06
2.21495e-05
2.21492e-05
1.90911e-05
1.90926e-05
1.90919e-05
1.90934e-05
1.90919e-05
1.90903e-05
1.90931e-05
1.90917e-05
8.62844e-06
2.21512e-05
2.21514e-05
2.2149e-05
2.21487e-05
8.62747e-06
2.57599e-06
1.00748e-06
4.18052e-06
8.69927e-06
8.69845e-06
1.0068e-06
2.57715e-06
2.57964e-06
1.00829e-06
4.18206e-06
8.70052e-06
8.70123e-06
1.00783e-06
2.58015e-06
2.57632e-06
8.69813e-06
4.18106e-06
1.00687e-06
8.69817e-06
2.57556e-06
1.00724e-06
2.58022e-06
8.70167e-06
4.18269e-06
1.00794e-06
8.70151e-06
2.57949e-06
1.00834e-06
8.6278e-06
2.215e-05
2.21486e-05
2.21516e-05
2.21508e-05
8.62815e-06
1.26386e-05
2.27568e-06
1.1485e-05
3.01477e-06
1.14852e-05
3.01529e-06
1.26391e-05
2.26783e-05
6.22722e-06
8.7072e-06
2.26755e-05
6.22653e-06
1.26389e-05
2.27498e-06
1.14852e-05
3.01506e-06
1.14852e-05
1.26387e-05
3.01455e-06
2.26755e-05
6.22705e-06
8.70733e-06
6.22746e-06
2.26782e-05
8.62968e-06
2.21516e-05
2.2152e-05
2.21494e-05
2.21497e-05
8.62928e-06
2.57883e-06
1.00791e-06
8.7013e-06
4.18199e-06
8.70127e-06
2.5795e-06
1.00752e-06
2.57457e-06
1.00703e-06
8.69762e-06
4.17999e-06
1.00664e-06
2.57524e-06
8.69758e-06
8.62906e-06
2.21493e-05
2.21497e-05
2.21515e-05
8.62922e-06
2.21519e-05
2.57932e-06
8.70127e-06
4.18262e-06
1.00775e-06
8.70131e-06
1.008e-06
2.57901e-06
2.57506e-06
8.69759e-06
4.1807e-06
1.00687e-06
1.00713e-06
8.69763e-06
2.57477e-06
1.90908e-05
1.90893e-05
1.26384e-05
1.14856e-05
3.01451e-06
2.27568e-06
1.14857e-05
3.0151e-06
1.26389e-05
2.26771e-05
8.70654e-06
6.22521e-06
6.22385e-06
2.2674e-05
2.2674e-05
6.22401e-06
8.70668e-06
6.22488e-06
2.2677e-05
1.26388e-05
2.27502e-06
1.14855e-05
3.01535e-06
1.14858e-05
3.01431e-06
1.26385e-05
1.26383e-05
2.27576e-06
3.01485e-06
1.14853e-05
3.01513e-06
1.14853e-05
1.26385e-05
2.26772e-05
6.22648e-06
8.70675e-06
6.22581e-06
2.26744e-05
1.26386e-05
2.27505e-06
3.0149e-06
1.14855e-05
3.01438e-06
1.26384e-05
1.14855e-05
2.26743e-05
6.22632e-06
8.7069e-06
6.22672e-06
2.2677e-05
1.26387e-05
2.27574e-06
1.14851e-05
3.01485e-06
1.14851e-05
3.01513e-06
1.26389e-05
2.26781e-05
6.22482e-06
8.70681e-06
2.26753e-05
6.22413e-06
1.26391e-05
2.27503e-06
1.14853e-05
3.0149e-06
1.26389e-05
1.14853e-05
3.01438e-06
2.26753e-05
6.22464e-06
8.70694e-06
6.22505e-06
2.26779e-05
8.63004e-06
2.21523e-05
2.21522e-05
2.215e-05
2.215e-05
8.62905e-06
2.57909e-06
1.00806e-06
4.18166e-06
8.70127e-06
8.70135e-06
1.00749e-06
2.57976e-06
2.5749e-06
1.00738e-06
4.18052e-06
8.69779e-06
1.0068e-06
8.69767e-06
2.5756e-06
2.57953e-06
8.70138e-06
4.18234e-06
1.00757e-06
8.70133e-06
1.00796e-06
2.57885e-06
2.57541e-06
8.69765e-06
4.18113e-06
1.00691e-06
1.00729e-06
8.69773e-06
2.5747e-06
8.62955e-06
2.21499e-05
2.21501e-05
2.21523e-05
2.21522e-05
8.6299e-06
1.90927e-05
1.90913e-05
1.26382e-05
2.27584e-06
3.01465e-06
1.14851e-05
3.01523e-06
1.14854e-05
1.26388e-05
2.26781e-05
6.22489e-06
8.70686e-06
6.22421e-06
2.26753e-05
1.26386e-05
2.27512e-06
3.01501e-06
1.14854e-05
3.01444e-06
1.26384e-05
1.14854e-05
2.26753e-05
6.22441e-06
8.707e-06
6.22511e-06
2.2678e-05
1.26376e-05
2.27567e-06
3.01438e-06
1.14855e-05
3.01497e-06
1.14857e-05
1.26382e-05
2.2675e-05
6.22587e-06
8.70732e-06
2.26719e-05
6.22503e-06
1.2638e-05
2.27501e-06
3.01474e-06
1.1486e-05
1.26378e-05
3.01415e-06
1.14859e-05
2.26719e-05
6.22551e-06
8.70745e-06
6.22611e-06
2.26749e-05
1.90925e-05
1.90911e-05
1.90933e-05
1.90919e-05
1.64809e-07
1.64806e-07
1.72366e-07
1.64816e-07
1.64813e-07
1.61065e-07
1.61066e-07
8.16479e-07
3.93007e-07
3.9308e-07
2.55548e-07
3.92627e-07
3.92697e-07
8.17025e-07
1.64807e-07
1.64806e-07
1.7236e-07
1.6481e-07
1.64808e-07
1.61064e-07
1.61065e-07
8.1646e-07
3.93006e-07
3.93074e-07
2.55544e-07
8.17009e-07
3.92626e-07
3.9269e-07
8.16409e-07
3.93076e-07
3.92987e-07
2.55524e-07
3.92601e-07
3.92692e-07
8.16963e-07
8.17036e-07
2.55925e-07
3.92707e-07
3.92615e-07
3.93057e-07
3.92966e-07
8.16323e-07
8.17097e-07
2.55941e-07
3.92644e-07
3.9271e-07
8.16385e-07
3.9299e-07
3.93059e-07
8.16603e-07
3.93037e-07
3.93218e-07
2.55548e-07
3.92631e-07
3.92858e-07
8.17134e-07
8.16408e-07
3.9304e-07
3.92949e-07
2.55527e-07
3.92599e-07
8.16959e-07
3.9269e-07
8.16486e-07
3.93077e-07
3.93016e-07
2.5554e-07
3.92636e-07
3.92696e-07
8.17032e-07
1.64813e-07
1.64811e-07
1.72372e-07
1.6482e-07
1.64818e-07
1.6107e-07
1.61071e-07
1.64812e-07
1.64815e-07
1.72377e-07
1.64822e-07
1.64819e-07
1.61071e-07
1.61072e-07
1.64813e-07
1.64811e-07
1.72372e-07
1.64819e-07
1.64818e-07
1.61069e-07
1.61071e-07
1.72365e-07
1.64808e-07
1.64806e-07
1.64814e-07
1.64812e-07
1.61073e-07
1.61071e-07
1.72368e-07
1.64815e-07
1.64813e-07
1.64816e-07
1.64814e-07
1.61076e-07
1.61076e-07
1.72373e-07
1.64814e-07
1.64817e-07
1.64819e-07
1.64816e-07
1.61078e-07
1.61077e-07
1.72368e-07
1.64815e-07
1.64813e-07
1.64816e-07
1.64814e-07
1.61076e-07
1.61076e-07
3.01812e-07
7.11609e-07
2.72022e-07
5.66359e-07
7.1202e-07
2.72262e-07
3.01396e-07
3.85155e-07
5.39114e-07
1.84712e-06
1.17279e-06
5.3852e-07
1.17183e-06
3.85735e-07
3.85723e-07
1.17192e-06
1.84826e-06
5.38548e-07
5.39088e-07
1.17269e-06
3.85144e-07
3.01396e-07
5.66052e-07
7.12077e-07
2.72263e-07
7.11554e-07
2.72024e-07
3.01814e-07
3.01837e-07
2.72044e-07
5.66434e-07
7.11653e-07
2.72284e-07
7.12058e-07
3.01428e-07
3.85179e-07
5.39194e-07
1.17261e-06
1.84731e-06
1.17167e-06
3.85747e-07
5.38603e-07
3.01426e-07
5.66121e-07
2.72285e-07
7.12115e-07
2.72048e-07
7.11592e-07
3.0184e-07
3.85736e-07
1.17177e-06
1.84846e-06
5.38633e-07
1.17251e-06
3.85172e-07
5.39166e-07
8.16942e-07
2.55943e-07
3.92645e-07
3.92714e-07
3.92991e-07
3.93062e-07
8.16405e-07
1.64821e-07
1.6482e-07
1.72374e-07
1.64821e-07
1.6482e-07
1.6107e-07
1.61071e-07
1.64821e-07
1.64824e-07
1.72378e-07
1.64821e-07
1.64823e-07
1.61072e-07
1.61073e-07
1.64821e-07
1.6482e-07
1.72374e-07
1.64822e-07
1.6482e-07
1.6107e-07
1.61071e-07
3.01812e-07
5.66357e-07
7.11863e-07
2.72022e-07
7.12013e-07
2.72263e-07
3.01397e-07
3.85153e-07
5.3911e-07
1.17277e-06
1.84711e-06
3.85732e-07
5.3852e-07
1.1718e-06
3.01395e-07
5.66049e-07
7.12067e-07
2.72262e-07
3.01814e-07
7.11546e-07
2.72024e-07
3.85721e-07
1.17243e-06
1.84825e-06
5.38547e-07
5.39085e-07
1.17267e-06
3.85152e-07
3.01833e-07
5.66426e-07
2.72045e-07
7.11627e-07
2.72285e-07
7.12038e-07
3.01418e-07
3.85165e-07
5.39185e-07
1.17259e-06
1.84731e-06
3.85744e-07
5.38593e-07
1.17164e-06
3.01417e-07
5.66112e-07
2.72285e-07
7.12094e-07
3.01833e-07
2.72048e-07
7.11571e-07
3.85731e-07
1.17174e-06
1.84841e-06
5.38623e-07
5.3916e-07
1.17249e-06
3.85155e-07
8.16928e-07
2.55941e-07
3.92647e-07
3.92711e-07
3.9299e-07
3.93057e-07
8.16906e-07
3.01773e-07
2.72018e-07
5.66325e-07
7.11446e-07
7.11844e-07
2.72259e-07
3.01367e-07
3.8509e-07
5.39191e-07
1.17226e-06
1.84728e-06
1.17133e-06
3.85648e-07
5.38639e-07
3.01358e-07
5.66009e-07
7.11882e-07
2.72259e-07
7.11374e-07
2.7202e-07
3.01768e-07
3.85668e-07
1.17147e-06
1.84855e-06
5.38783e-07
1.17221e-06
3.85118e-07
5.39289e-07
3.0182e-07
7.11669e-07
2.7203e-07
5.66357e-07
7.12076e-07
2.72273e-07
3.01406e-07
3.8523e-07
5.39342e-07
1.84759e-06
1.17305e-06
1.17209e-06
5.3875e-07
3.85795e-07
3.85793e-07
1.17219e-06
1.84869e-06
5.38774e-07
1.17295e-06
3.85225e-07
5.39313e-07
3.01404e-07
5.66049e-07
7.12136e-07
2.72272e-07
7.11614e-07
2.72034e-07
3.01817e-07
3.01365e-07
2.72261e-07
5.66014e-07
7.11786e-07
3.01779e-07
7.11382e-07
2.72021e-07
3.85685e-07
5.38695e-07
1.17141e-06
1.8484e-06
1.17217e-06
3.85112e-07
5.39197e-07
3.01776e-07
5.66323e-07
7.11425e-07
2.72022e-07
7.11836e-07
2.72263e-07
3.01362e-07
3.8512e-07
1.17211e-06
5.39267e-07
1.84731e-06
3.85698e-07
1.17134e-06
5.38649e-07
3.01407e-07
7.12007e-07
2.72273e-07
5.66048e-07
3.0182e-07
7.11603e-07
2.72032e-07
3.85803e-07
5.38769e-07
1.84869e-06
1.17216e-06
1.17293e-06
5.39306e-07
3.85226e-07
3.85232e-07
1.17283e-06
5.39281e-07
1.84759e-06
3.85798e-07
1.17207e-06
5.38746e-07
3.0182e-07
5.66356e-07
7.11654e-07
2.72032e-07
7.12066e-07
2.72274e-07
3.01405e-07
8.16875e-07
2.55924e-07
3.92709e-07
3.92617e-07
3.92969e-07
3.93059e-07
8.16332e-07
8.16412e-07
2.55525e-07
3.93041e-07
3.92951e-07
3.92691e-07
8.16965e-07
3.926e-07
3.01803e-07
2.7202e-07
7.11618e-07
5.66355e-07
2.72259e-07
7.12026e-07
3.01392e-07
3.85159e-07
5.39172e-07
1.84722e-06
1.17268e-06
5.38582e-07
1.17171e-06
3.85727e-07
3.85724e-07
1.1718e-06
1.84833e-06
5.38613e-07
5.3915e-07
1.17257e-06
3.85156e-07
3.01391e-07
5.66048e-07
2.72261e-07
7.12089e-07
2.72022e-07
7.11566e-07
3.01804e-07
3.01398e-07
7.11961e-07
2.72265e-07
5.66052e-07
3.01814e-07
7.11555e-07
2.72027e-07
3.85742e-07
5.38547e-07
1.84826e-06
1.17191e-06
3.85156e-07