/*--------------------------------*- C++ -*----------------------------------*\
| =========                 |                                                 |
| \\      /  F ield         | OpenFOAM: The Open Source CFD Toolbox           |
|  \\    /   O peration     | Version:  v1912                                 |
|   \\  /    A nd           | Website:  www.openfoam.com                      |
|    \\/     M anipulation  |                                                 |
\*---------------------------------------------------------------------------*/
FoamFile
{
    version     2.0;
    format      ascii;
    class       volScalarField;
    location    "60";
    object      k;
}
// * * * * * * * * * * * * * * * * * * * * * * * * * * * * * * * * * * * * * //

dimensions      [0 2 -2 0 0 0 0];


internalField   nonuniform List<scalar> 
57566
(
7.11831e-05
1.94363e-05
1.81905e-05
1.84065e-05
3.16253e-05
1.78559e-05
4.70015e-05
4.70112e-05
7.11798e-05
7.11828e-05
1.78549e-05
4.70014e-05
4.7016e-05
3.34227e-05
6.89638e-05
3.34258e-05
6.89762e-05
1.94368e-05
1.81905e-05
3.16298e-05
1.84071e-05
1.94376e-05
1.81907e-05
3.16346e-05
1.84072e-05
7.11839e-05
1.78546e-05
4.70149e-05
4.70004e-05
7.11801e-05
3.34243e-05
6.89653e-05
1.94358e-05
1.81901e-05
1.84068e-05
3.16343e-05
3.34261e-05
6.89735e-05
1.94385e-05
1.81913e-05
3.1634e-05
1.84075e-05
3.34274e-05
6.89657e-05
1.94387e-05
1.81901e-05
1.84068e-05
3.16414e-05
1.94349e-05
1.81906e-05
1.84068e-05
3.16177e-05
3.34222e-05
6.89698e-05
1.94376e-05
1.81905e-05
3.16288e-05
1.84067e-05
3.34255e-05
6.89735e-05
1.94379e-05
1.81906e-05
1.84068e-05
3.16253e-05
3.34256e-05
6.897e-05
1.78554e-05
4.70044e-05
4.70063e-05
7.1187e-05
7.11795e-05
1.78551e-05
4.7006e-05
4.70072e-05
7.1184e-05
1.94359e-05
1.81914e-05
1.84069e-05
3.16209e-05
3.34258e-05
6.897e-05
3.34255e-05
6.89747e-05
1.94392e-05
1.81905e-05
1.84065e-05
3.16326e-05
1.94388e-05
1.81914e-05
1.84069e-05
3.16287e-05
3.34288e-05
6.89702e-05
3.34286e-05
6.8975e-05
7.11859e-05
7.11865e-05
1.78556e-05
4.70025e-05
4.70122e-05
7.11829e-05
7.11835e-05
7.11811e-05
7.42272e-05
7.29655e-05
7.29603e-05
7.29617e-05
7.29565e-05
7.42282e-05
3.87778e-05
6.70717e-05
4.70036e-05
2.46965e-05
2.4702e-05
6.70718e-05
3.87748e-05
3.88213e-05
6.70806e-05
4.70132e-05
2.47049e-05
2.47104e-05
6.70806e-05
3.88183e-05
7.11831e-05
7.11863e-05
7.42205e-05
7.29608e-05
7.2955e-05
7.42178e-05
7.29642e-05
7.29586e-05
3.87736e-05
6.70719e-05
2.46999e-05
4.70004e-05
3.87793e-05
6.70717e-05
2.46963e-05
3.88138e-05
6.70813e-05
2.47095e-05
4.70156e-05
3.88217e-05
6.70806e-05
2.47044e-05
7.1778e-05
7.26327e-05
3.99821e-05
3.34215e-05
7.17774e-05
7.26321e-05
3.99814e-05
7.14934e-05
6.21258e-05
6.89619e-05
7.14881e-05
6.21249e-05
7.17836e-05
7.26338e-05
3.9999e-05
3.34245e-05
7.17834e-05
7.26333e-05
3.99982e-05
7.15032e-05
6.21751e-05
6.89746e-05
7.14985e-05
6.2174e-05
7.11874e-05
7.42165e-05
7.29543e-05
7.2959e-05
7.42151e-05
7.29577e-05
7.29624e-05
3.88129e-05
6.70796e-05
2.47081e-05
4.70145e-05
2.47039e-05
3.882e-05
6.70793e-05
3.87702e-05
6.70722e-05
2.46991e-05
4.69997e-05
3.87772e-05
6.70718e-05
2.46947e-05
7.11836e-05
7.17798e-05
3.34275e-05
7.26363e-05
3.9987e-05
7.2637e-05
3.9991e-05
7.17798e-05
7.14921e-05
6.21352e-05
6.8967e-05
6.21393e-05
7.14972e-05
7.17824e-05
3.99903e-05
7.26371e-05
3.34251e-05
7.17822e-05
3.99897e-05
7.26367e-05
7.14973e-05
6.2156e-05
6.89719e-05
7.14926e-05
6.21553e-05
7.17776e-05
7.26358e-05
3.99901e-05
3.34258e-05
7.17775e-05
7.2635e-05
3.99879e-05
7.14951e-05
6.21362e-05
6.89641e-05
7.14896e-05
6.2135e-05
7.17826e-05
3.3426e-05
7.26332e-05
3.99923e-05
7.2634e-05
3.99958e-05
7.17826e-05
7.14971e-05
6.21478e-05
6.89713e-05
6.2152e-05
7.15015e-05
7.17832e-05
3.99975e-05
7.26345e-05
3.34239e-05
7.1783e-05
3.99965e-05
7.26339e-05
7.15023e-05
6.21698e-05
6.89717e-05
7.14975e-05
6.21684e-05
7.17803e-05
7.2634e-05
3.9995e-05
3.34237e-05
7.17803e-05
7.26334e-05
3.99931e-05
7.14994e-05
6.21477e-05
6.89687e-05
7.14945e-05
6.21466e-05
7.42249e-05
7.2959e-05
7.29644e-05
7.29552e-05
7.29607e-05
7.42253e-05
3.88206e-05
6.70782e-05
4.70069e-05
2.47018e-05
6.70784e-05
2.47072e-05
3.88168e-05
3.878e-05
6.70726e-05
4.70086e-05
2.46961e-05
2.47012e-05
6.70728e-05
3.87761e-05
7.11836e-05
7.11826e-05
7.42301e-05
7.29529e-05
7.29584e-05
7.42271e-05
7.29566e-05
7.2962e-05
3.88214e-05
6.7078e-05
2.47061e-05
4.70048e-05
2.47033e-05
3.88252e-05
6.70777e-05
3.87808e-05
6.70725e-05
2.47002e-05
4.70061e-05
3.87845e-05
6.70721e-05
2.46975e-05
7.11869e-05
7.17832e-05
3.34289e-05
3.9993e-05
7.26367e-05
3.99965e-05
7.26373e-05
7.17831e-05
7.14973e-05
6.2147e-05
6.89715e-05
6.21511e-05
7.15017e-05
7.17838e-05
3.34288e-05
3.99952e-05
7.26373e-05
3.99986e-05
7.2638e-05
7.17838e-05
7.14978e-05
6.21683e-05
6.89763e-05
6.21722e-05
7.15022e-05
7.17808e-05
3.99956e-05
7.26363e-05
3.34272e-05
7.17808e-05
3.99938e-05
7.26355e-05
7.14997e-05
6.2147e-05
6.89689e-05
7.14948e-05
6.21459e-05
7.17814e-05
3.99978e-05
7.26369e-05
3.34269e-05
7.17814e-05
3.9996e-05
7.2636e-05
7.15001e-05
6.21686e-05
6.89736e-05
7.14953e-05
6.21675e-05
7.11824e-05
7.11831e-05
7.42309e-05
7.29595e-05
7.29543e-05
7.423e-05
7.29631e-05
7.29578e-05
3.87798e-05
6.70716e-05
2.47004e-05
4.70016e-05
3.87834e-05
2.46976e-05
6.70714e-05
3.88233e-05
6.70803e-05
2.47088e-05
4.70113e-05
3.88269e-05
2.47059e-05
6.70801e-05
7.11858e-05
7.11864e-05
1.88848e-05
1.92468e-05
1.92471e-05
1.95838e-05
1.8885e-05
1.92468e-05
1.9247e-05
1.95837e-05
1.88843e-05
1.92464e-05
1.92468e-05
1.95835e-05
1.88852e-05
1.92471e-05
1.92475e-05
1.95839e-05
1.88848e-05
1.92467e-05
1.92471e-05
1.95837e-05
1.8885e-05
1.92468e-05
1.9247e-05
1.95836e-05
1.77582e-05
1.94387e-05
1.74723e-05
2.11423e-05
1.74717e-05
2.11496e-05
1.77575e-05
1.84184e-05
2.57102e-05
3.16358e-05
1.99956e-05
1.99993e-05
2.5719e-05
1.84158e-05
2.32889e-05
1.78545e-05
1.89453e-05
1.89455e-05
1.89481e-05
1.89483e-05
2.32793e-05
2.32787e-05
1.78557e-05
1.89478e-05
1.8948e-05
2.32887e-05
1.8945e-05
1.8945e-05
1.77562e-05
2.1147e-05
1.74735e-05
1.94345e-05
1.77569e-05
2.11415e-05
1.74737e-05
1.84142e-05
2.57127e-05
1.99984e-05
3.16186e-05
1.99946e-05
1.84168e-05
2.57025e-05
1.77573e-05
2.11472e-05
1.74735e-05
1.94352e-05
1.7758e-05
2.11411e-05
1.74737e-05
1.84167e-05
2.57247e-05
2.00008e-05
3.16233e-05
1.84193e-05
2.57145e-05
1.9997e-05
2.32775e-05
1.78554e-05
1.89474e-05
1.89473e-05
1.89445e-05
2.32876e-05
1.89444e-05
1.77569e-05
1.94382e-05
1.74739e-05
2.11437e-05
1.74737e-05
2.11487e-05
1.77562e-05
1.84172e-05
2.57076e-05
3.16429e-05
1.9996e-05
2.57163e-05
1.84146e-05
1.99997e-05
1.7757e-05
2.11498e-05
1.74745e-05
1.94361e-05
1.77577e-05
2.11443e-05
1.74746e-05
1.84156e-05
2.57104e-05
2.00008e-05
3.16213e-05
1.99968e-05
1.84182e-05
2.56972e-05
1.77562e-05
1.74744e-05
2.1147e-05
1.94369e-05
1.77569e-05
1.74743e-05
2.1143e-05
1.84153e-05
2.57146e-05
2.00012e-05
3.16344e-05
1.84179e-05
2.57075e-05
1.99974e-05
1.77572e-05
1.94373e-05
1.74733e-05
2.11459e-05
1.74731e-05
2.11507e-05
1.77566e-05
1.84179e-05
2.57108e-05
3.16304e-05
1.9995e-05
1.99988e-05
2.57198e-05
1.84153e-05
1.77576e-05
2.11515e-05
1.74722e-05
1.94352e-05
1.77583e-05
2.11467e-05
1.74726e-05
1.84159e-05
2.57216e-05
1.9998e-05
3.16173e-05
1.84185e-05
1.99941e-05
2.57112e-05
1.77566e-05
1.74732e-05
2.11491e-05
1.94359e-05
1.77573e-05
1.74732e-05
2.11449e-05
1.8416e-05
2.57177e-05
1.99999e-05
3.16197e-05
1.84186e-05
2.57105e-05
1.99962e-05
2.32888e-05
1.78541e-05
1.89445e-05
1.89449e-05
1.89476e-05
1.89473e-05
2.32792e-05
2.32803e-05
1.78557e-05
1.89483e-05
1.89486e-05
1.89454e-05
2.32862e-05
1.89458e-05
1.77574e-05
1.94384e-05
1.74726e-05
2.11466e-05
1.74724e-05
2.11517e-05
1.77567e-05
1.84188e-05
2.57142e-05
3.16331e-05
1.9997e-05
2.00008e-05
2.57232e-05
1.84162e-05
1.77575e-05
1.74731e-05
2.1146e-05
1.94373e-05
1.77583e-05
1.74731e-05
2.11424e-05
1.84166e-05
2.57172e-05
2.00006e-05
3.16263e-05
1.84192e-05
1.99969e-05
2.571e-05
1.77567e-05
1.74728e-05
2.11494e-05
1.94369e-05
1.77575e-05
1.74727e-05
2.11449e-05
1.84169e-05
2.5721e-05
2.00019e-05
3.16223e-05
1.84195e-05
2.57137e-05
1.99981e-05
2.32806e-05
1.78562e-05
1.8949e-05
1.89493e-05
2.32864e-05
1.89462e-05
1.89464e-05
7.11818e-05
7.11819e-05
1.78456e-05
4.70357e-05
4.70477e-05
3.34529e-05
6.89665e-05
3.34556e-05
1.94382e-05
1.81779e-05
3.16401e-05
1.83929e-05
1.9439e-05
1.83931e-05
3.3457e-05
6.89729e-05
1.94398e-05
1.81784e-05
3.16425e-05
1.83926e-05
3.34571e-05
6.89677e-05
1.94398e-05
1.81774e-05
1.83923e-05
3.16411e-05
7.11797e-05
1.7845e-05
4.70379e-05
4.70375e-05
7.1182e-05
1.944e-05
1.81781e-05
1.83924e-05
3.16409e-05
1.94393e-05
1.8393e-05
3.34567e-05
6.89716e-05
3.34567e-05
7.11831e-05
7.11832e-05
7.42696e-05
7.29593e-05
7.29548e-05
7.42675e-05
7.2964e-05
7.29595e-05
3.88254e-05
6.70748e-05
2.47153e-05
4.70333e-05
3.88284e-05
6.70748e-05
2.47125e-05
3.88641e-05
6.70799e-05
2.47263e-05
4.70452e-05
3.88671e-05
6.708e-05
2.47233e-05
7.17677e-05
7.26157e-05
4.00253e-05
3.34498e-05
7.17676e-05
7.2616e-05
4.00214e-05
7.14941e-05
6.21717e-05
6.89654e-05
7.14874e-05
6.21677e-05
7.17728e-05
7.26173e-05
4.00389e-05
3.34525e-05
7.17724e-05
7.26175e-05
4.00349e-05
7.17717e-05
4.00331e-05
7.26194e-05
3.34541e-05
7.17713e-05
4.00294e-05
7.262e-05
7.14975e-05
6.22004e-05
6.89722e-05
7.14914e-05
6.21969e-05
7.17689e-05
7.26189e-05
4.00313e-05
3.34543e-05
7.17688e-05
7.26194e-05
4.00273e-05
7.14973e-05
6.21792e-05
6.89668e-05
7.14907e-05
6.21755e-05
7.11811e-05
7.428e-05
7.2956e-05
7.29614e-05
7.42791e-05
7.29607e-05
7.29661e-05
3.88542e-05
6.70785e-05
2.47214e-05
4.70351e-05
2.47183e-05
3.88567e-05
6.70784e-05
3.88134e-05
6.70729e-05
2.47154e-05
4.7035e-05
3.8816e-05
6.70727e-05
2.47124e-05
7.11834e-05
7.17694e-05
4.00355e-05
7.26165e-05
3.34534e-05
7.17692e-05
4.00313e-05
7.26168e-05
7.15014e-05
6.21914e-05
6.89708e-05
7.14954e-05
6.21878e-05
7.17692e-05
4.00311e-05
7.26186e-05
3.34539e-05
7.1769e-05
4.00268e-05
7.26192e-05
1.88702e-05
1.92323e-05
1.92325e-05
1.95692e-05
1.92329e-05
1.95696e-05
1.88706e-05
1.92327e-05
1.92328e-05
1.95693e-05
1.9233e-05
1.95694e-05
2.32936e-05
1.78466e-05
1.89447e-05
1.89466e-05
2.32966e-05
1.89419e-05
1.89436e-05
1.77482e-05
2.11467e-05
1.74617e-05
1.94354e-05
1.77489e-05
2.1144e-05
1.74624e-05
1.84097e-05
2.57115e-05
2.00005e-05
3.16375e-05
1.99959e-05
1.84126e-05
2.57097e-05
1.77496e-05
2.11507e-05
1.74622e-05
1.94363e-05
1.77501e-05
2.11486e-05
1.74629e-05
1.77487e-05
2.11492e-05
1.74613e-05
1.9437e-05
1.77494e-05
2.11479e-05
1.74621e-05
1.84109e-05
2.57174e-05
2.00022e-05
3.16402e-05
1.99976e-05
1.84138e-05
2.57155e-05
1.77484e-05
1.74615e-05
2.11486e-05
1.94371e-05
1.77491e-05
1.74623e-05
2.11474e-05
1.841e-05
2.57144e-05
2.0001e-05
3.16387e-05
1.8413e-05
2.57125e-05
1.99963e-05
2.32912e-05
1.7846e-05
1.89444e-05
1.89449e-05
1.89416e-05
2.32939e-05
1.89421e-05
1.77495e-05
1.7461e-05
2.11506e-05
1.94372e-05
1.77502e-05
1.74618e-05
2.11483e-05
1.84115e-05
2.57178e-05
2.0001e-05
3.16385e-05
1.84144e-05
1.99964e-05
2.5716e-05
1.77485e-05
1.74613e-05
2.11482e-05
1.94366e-05
1.77491e-05
1.74621e-05
2.11447e-05
1.88696e-05
1.81777e-05
1.81777e-05
1.78457e-05
1.88698e-05
1.81776e-05
1.81776e-05
1.78456e-05
1.81773e-05
1.81774e-05
1.81774e-05
1.81774e-05
1.78451e-05
1.78464e-05
1.81775e-05
1.81777e-05
1.81776e-05
1.81781e-05
1.81776e-05
1.81781e-05
1.78467e-05
1.78453e-05
1.81778e-05
1.81779e-05
1.78463e-05
1.81781e-05
1.81771e-05
1.8178e-05
1.78446e-05
1.81786e-05
3.34485e-05
6.89667e-05
3.34531e-05
6.89663e-05
7.1184e-05
7.11874e-05
1.88701e-05
1.88698e-05
1.887e-05
1.88699e-05
1.88702e-05
1.887e-05
1.88701e-05
1.94368e-05
3.1638e-05
1.83921e-05
1.81782e-05
3.1629e-05
1.83927e-05
1.94395e-05
1.94375e-05
1.8392e-05
3.16415e-05
1.81781e-05
1.83926e-05
1.94403e-05
3.16328e-05
4.70347e-05
4.70441e-05
1.78471e-05
4.70303e-05
4.70399e-05
3.34481e-05
6.89667e-05
3.34529e-05
6.89656e-05
7.11837e-05
7.11841e-05
3.34525e-05
6.89725e-05
6.8972e-05
3.34571e-05
1.88707e-05
1.88705e-05
1.88706e-05
1.94368e-05
3.16378e-05
1.83921e-05
1.81779e-05
1.94395e-05
3.16333e-05
1.83924e-05
7.11797e-05
7.11834e-05
1.94374e-05
1.8392e-05
3.16413e-05
1.81779e-05
1.94401e-05
1.83922e-05
3.16324e-05
4.70344e-05
4.70438e-05
1.7847e-05
4.70304e-05
4.70399e-05
3.3451e-05
6.8977e-05
6.89761e-05
3.34559e-05
1.94358e-05
3.16411e-05
1.83921e-05
1.81778e-05
1.83926e-05
1.94384e-05
3.16344e-05
1.94366e-05
3.16445e-05
1.83922e-05
1.81778e-05
3.16358e-05
1.83927e-05
1.94394e-05
3.34495e-05
6.89658e-05
3.34483e-05
6.89669e-05
3.34515e-05
6.8976e-05
6.89767e-05
3.34507e-05
1.9438e-05
1.81776e-05
3.16329e-05
1.83923e-05
1.83924e-05
1.94357e-05
3.16398e-05
1.94389e-05
1.81776e-05
3.16357e-05
1.83923e-05
3.16414e-05
1.83924e-05
1.94365e-05
4.70512e-05
4.7033e-05
1.78466e-05
4.70461e-05
4.70281e-05
7.11797e-05
7.11834e-05
7.11873e-05
7.11845e-05
1.78466e-05
4.70461e-05
4.70281e-05
4.70462e-05
4.70281e-05
7.11833e-05
7.11804e-05
3.3451e-05
6.89742e-05
6.89731e-05
3.3456e-05
1.94365e-05
1.83921e-05
3.16401e-05
1.8178e-05
1.83926e-05
3.16313e-05
1.94393e-05
3.34506e-05
6.89721e-05
6.89712e-05
3.34556e-05
1.94391e-05
1.81781e-05
3.1629e-05
1.83921e-05
3.16349e-05
1.83926e-05
1.94369e-05
3.34519e-05
6.8973e-05
6.89739e-05
3.34511e-05
1.94388e-05
1.81777e-05
1.83922e-05
3.16312e-05
1.83923e-05
3.1637e-05
1.94365e-05
3.34514e-05
6.89711e-05
6.89718e-05
3.34507e-05
1.94366e-05
1.83921e-05
3.16419e-05
1.81785e-05
1.83926e-05
3.16332e-05
1.94393e-05
3.34521e-05
6.89726e-05
3.34573e-05
6.89711e-05
3.34523e-05
6.89736e-05
6.89727e-05
3.3457e-05
1.94398e-05
1.8178e-05
1.8392e-05
3.16327e-05
1.83925e-05
1.94375e-05
3.16387e-05
1.94388e-05
1.81783e-05
1.83922e-05
3.16332e-05
1.83923e-05
3.16388e-05
1.94367e-05
3.3453e-05
6.89709e-05
3.3452e-05
6.89718e-05
3.34528e-05
6.89727e-05
6.89734e-05
3.34523e-05
7.11814e-05
7.1185e-05
7.11815e-05
7.11851e-05
1.78471e-05
4.70316e-05
4.7041e-05
4.70304e-05
4.70401e-05
7.11849e-05
7.11822e-05
7.1185e-05
7.11823e-05
7.11822e-05
7.11853e-05
7.11818e-05
7.11854e-05
4.70394e-05
4.70491e-05
1.78467e-05
4.70332e-05
4.70452e-05
3.34509e-05
6.89766e-05
3.34515e-05
6.89758e-05
1.94356e-05
3.16381e-05
1.83928e-05
1.81778e-05
1.94379e-05
3.16316e-05
1.83928e-05
1.94365e-05
3.16413e-05
1.83929e-05
1.81779e-05
1.94388e-05
3.16402e-05
1.83928e-05
4.7046e-05
4.70284e-05
1.78463e-05
4.70467e-05
4.70287e-05
7.11803e-05
7.11797e-05
1.94372e-05
3.16423e-05
1.83923e-05
1.81783e-05
3.16339e-05
1.83925e-05
1.94399e-05
3.34526e-05
6.89678e-05
6.89668e-05
3.34573e-05
1.94373e-05
1.8392e-05
3.16409e-05
1.81773e-05
1.83922e-05
3.1632e-05
1.944e-05
3.34521e-05
6.89738e-05
3.34519e-05
6.89728e-05
1.94365e-05
1.83927e-05
3.16369e-05
1.8178e-05
1.94387e-05
1.83928e-05
3.1636e-05
3.34517e-05
6.89717e-05
3.34515e-05
6.89709e-05
4.70393e-05
4.704e-05
1.7846e-05
4.70347e-05
4.70349e-05
7.1182e-05
7.11856e-05
1.94367e-05
1.83928e-05
3.16388e-05
1.81786e-05
1.94389e-05
1.83927e-05
3.16378e-05
3.34519e-05
6.89716e-05
3.34529e-05
6.89708e-05
3.34523e-05
6.89733e-05
3.34528e-05
6.89725e-05
7.11821e-05
7.11819e-05
7.11822e-05
7.1182e-05
7.1767e-05
7.26164e-05
3.34513e-05
4.00203e-05
7.26167e-05
4.00231e-05
7.17691e-05
7.14938e-05
6.21729e-05
6.89662e-05
6.2166e-05
7.14874e-05
7.17684e-05
3.34461e-05
7.26158e-05
4.0026e-05
7.2617e-05
4.00177e-05
7.17673e-05
7.14876e-05
6.21677e-05
6.8967e-05
6.21694e-05
7.14938e-05
7.11879e-05
7.11842e-05
7.42797e-05
7.29657e-05
7.29605e-05
7.2961e-05
7.29557e-05
7.4279e-05
3.88098e-05
2.47142e-05
4.7029e-05
6.70721e-05
2.47083e-05
6.70722e-05
3.88145e-05
3.88534e-05
2.47225e-05
4.70386e-05
6.70806e-05
2.47167e-05
6.70807e-05
3.88581e-05
3.88114e-05
6.70721e-05
4.70318e-05
2.47095e-05
2.4713e-05
6.70721e-05
3.88069e-05
3.8855e-05
6.70806e-05
4.70413e-05
2.47179e-05
2.47213e-05
6.70806e-05
3.88504e-05
7.42814e-05
7.29618e-05
7.29566e-05
7.29661e-05
7.29609e-05
7.42812e-05
7.17669e-05
3.34509e-05
7.2616e-05
4.00199e-05
7.26167e-05
4.00227e-05
7.17691e-05
7.14941e-05
6.21736e-05
6.89655e-05
7.14875e-05
6.2166e-05
7.17684e-05
3.34461e-05
7.26158e-05
4.00259e-05
7.17675e-05
7.2617e-05
4.00172e-05
7.14877e-05
6.21678e-05
6.89663e-05
6.21697e-05
7.14939e-05
7.11876e-05
7.11839e-05
7.17707e-05
4.00281e-05
7.26196e-05
3.3455e-05
4.00307e-05
7.26204e-05
7.17728e-05
7.14976e-05
6.89718e-05
6.22032e-05
6.21972e-05
7.14916e-05
7.14917e-05
6.21979e-05
6.89726e-05
6.21993e-05
7.14974e-05
7.17721e-05
3.34504e-05
4.00338e-05
7.26196e-05
4.00257e-05
7.26208e-05
7.17713e-05
7.11838e-05
7.118e-05
7.42849e-05
7.29672e-05
7.2962e-05
7.2962e-05
7.29568e-05
7.42839e-05
3.88091e-05
2.4714e-05
6.70717e-05
4.70288e-05
3.88134e-05
2.47081e-05
6.70718e-05
3.88526e-05
2.47223e-05
6.70804e-05
4.70382e-05
3.8857e-05
2.47164e-05
6.70805e-05
7.42833e-05
7.29613e-05
7.29561e-05
7.42772e-05
7.29665e-05
7.29612e-05
3.88111e-05
6.70717e-05
4.70316e-05
2.47104e-05
2.47128e-05
6.70718e-05
3.88089e-05
3.88547e-05
6.70805e-05
4.7041e-05
2.47188e-05
2.47211e-05
6.70804e-05
3.88524e-05
7.17719e-05
7.26185e-05
4.00349e-05
3.34537e-05
7.26185e-05
4.00376e-05
7.17739e-05
7.15031e-05
6.89761e-05
6.22186e-05
6.22111e-05
7.14973e-05
7.14972e-05
6.22113e-05
6.89768e-05
6.22131e-05
7.15028e-05
7.17732e-05
3.3449e-05
7.26176e-05
4.00413e-05
7.26194e-05
4.00328e-05
7.17725e-05
7.17685e-05
7.26168e-05
3.34467e-05
4.00209e-05
7.17676e-05
7.26168e-05
4.00185e-05
7.14876e-05
6.21698e-05
6.89664e-05
7.14941e-05
6.21718e-05
7.17683e-05
3.3451e-05
7.2616e-05
4.00206e-05
7.1769e-05
7.26166e-05
4.00236e-05
7.1494e-05
6.21678e-05
6.89656e-05
7.14874e-05
6.21671e-05
7.17733e-05
7.2619e-05
4.00349e-05
3.3449e-05
7.17725e-05
7.2619e-05
4.00328e-05
7.14968e-05
6.89766e-05
6.22125e-05
6.22144e-05
7.15027e-05
7.15028e-05
6.22113e-05
6.89758e-05
7.14969e-05
6.22108e-05
7.17732e-05
3.34535e-05
7.26183e-05
4.00347e-05
7.26186e-05
4.00375e-05
7.17738e-05
7.42741e-05
7.29604e-05
7.29651e-05
7.29553e-05
7.296e-05
7.42742e-05
3.88509e-05
2.47236e-05
4.70453e-05
6.70802e-05
6.708e-05
2.47177e-05
3.88556e-05
3.88078e-05
2.47133e-05
4.70269e-05
6.70722e-05
2.47073e-05
6.7072e-05
3.88124e-05
3.88527e-05
6.708e-05
4.70478e-05
2.47188e-05
6.70802e-05
2.47223e-05
3.88483e-05
3.88095e-05
6.7072e-05
4.703e-05
2.47084e-05
2.4712e-05
6.70722e-05
3.88051e-05
7.42742e-05
7.29556e-05
7.29603e-05
7.29602e-05
7.29649e-05
7.42712e-05
7.11838e-05
7.11801e-05
7.1184e-05
7.11876e-05
7.42798e-05
7.29557e-05
7.29604e-05
7.42754e-05
7.29607e-05
7.29654e-05
3.88587e-05
2.47187e-05
4.70478e-05
6.70797e-05
2.47222e-05
6.70799e-05
3.88485e-05
3.88154e-05
2.47084e-05
4.703e-05
6.70717e-05
6.70719e-05
2.4712e-05
3.88053e-05
3.88512e-05
6.70801e-05
2.47211e-05
4.70452e-05
2.47176e-05
3.88557e-05
6.70798e-05
3.8808e-05
6.70721e-05
2.47108e-05
4.70268e-05
3.88125e-05
6.70719e-05
2.47072e-05
7.42747e-05
7.29612e-05
7.2966e-05
7.29561e-05
7.29608e-05
7.42763e-05
7.118e-05
7.11838e-05
7.17716e-05
4.00335e-05
7.26186e-05
3.34538e-05
4.00363e-05
7.2619e-05
7.17736e-05
7.15025e-05
6.89732e-05
6.22148e-05
6.22074e-05
7.14966e-05
7.14965e-05
6.22072e-05
6.8974e-05
6.22092e-05
7.15022e-05
7.17729e-05
3.3449e-05
4.00401e-05
7.26176e-05
4.00316e-05
7.26195e-05
7.17722e-05
7.17708e-05
7.2618e-05
4.00316e-05
3.34534e-05
7.26184e-05
4.00344e-05
7.17729e-05
7.1502e-05
6.89713e-05
6.21955e-05
6.2188e-05
7.14961e-05
7.1496e-05
6.21879e-05
6.89719e-05
6.219e-05
7.15016e-05
7.17722e-05
3.34486e-05
7.2617e-05
4.00382e-05
7.26189e-05
4.00297e-05
7.17714e-05
7.17731e-05
4.00337e-05
7.26192e-05
3.34492e-05
7.17722e-05
4.00315e-05
7.26191e-05
7.14962e-05
6.89738e-05
6.22084e-05
6.22102e-05
7.1502e-05
7.15021e-05
6.22071e-05
6.89729e-05
7.14962e-05
6.22067e-05
7.1773e-05
3.34539e-05
4.00335e-05
7.26185e-05
4.00363e-05
7.26188e-05
7.17735e-05
7.17723e-05
7.26185e-05
4.00318e-05
3.34488e-05
7.17715e-05
7.26185e-05
4.00296e-05
7.14956e-05
6.89718e-05
6.21891e-05
6.2191e-05
7.15015e-05
7.15016e-05
6.21877e-05
6.8971e-05
7.14957e-05
6.21875e-05
7.17722e-05
3.34535e-05
7.26178e-05
4.00316e-05
7.26181e-05
4.00344e-05
7.17728e-05
7.17689e-05
7.26178e-05
3.34549e-05
4.00306e-05
4.00337e-05
7.2618e-05
7.1771e-05
7.15022e-05
6.21963e-05
6.89714e-05
6.21888e-05
7.14964e-05
7.17704e-05
3.34501e-05
4.00375e-05
7.26168e-05
4.00286e-05
7.26181e-05
7.17697e-05
7.14963e-05
6.21888e-05
6.89722e-05
6.21907e-05
7.15019e-05
7.17685e-05
4.00264e-05
7.26198e-05
3.34548e-05
4.00296e-05
7.26198e-05
7.17706e-05
7.14968e-05
6.89728e-05
6.21971e-05
6.21895e-05
7.14903e-05
7.14903e-05
6.21907e-05
6.89734e-05
6.21929e-05
7.14966e-05
7.177e-05
3.34503e-05
4.00332e-05
7.26188e-05
4.00243e-05
7.26201e-05
7.17692e-05
7.17704e-05
7.2618e-05
3.34502e-05
4.00311e-05
7.17695e-05
4.00285e-05
7.26183e-05
7.14959e-05
6.21898e-05
6.89716e-05
6.21917e-05
7.15018e-05
7.17702e-05
3.34549e-05
4.00302e-05
7.26179e-05
4.00334e-05
7.26181e-05
7.17709e-05
7.15019e-05
6.21889e-05
6.89707e-05
7.1496e-05
6.21884e-05
7.177e-05
4.0027e-05
7.26212e-05
3.34505e-05
7.17691e-05
4.00244e-05
7.26211e-05
7.149e-05
6.89734e-05
6.21913e-05
6.21936e-05
7.14965e-05
7.14966e-05
6.2191e-05
6.89726e-05
7.149e-05
6.21897e-05
7.17699e-05
3.34549e-05
4.00264e-05
7.262e-05
4.00296e-05
7.262e-05
7.17705e-05
7.11853e-05
7.11818e-05
7.11854e-05
7.11819e-05
7.42807e-05
7.29607e-05
7.29555e-05
7.42789e-05
7.29654e-05
7.29602e-05
3.88163e-05
2.47095e-05
4.70331e-05
6.70718e-05
3.8806e-05
2.4713e-05
6.70717e-05
3.88599e-05
2.47178e-05
4.70425e-05
6.70804e-05
3.88495e-05
2.47213e-05
6.70803e-05
3.88093e-05
6.7072e-05
2.47118e-05
4.703e-05
3.8814e-05
2.47083e-05
6.70719e-05
3.88528e-05
6.70805e-05
2.47201e-05
4.70396e-05
3.88576e-05
2.47167e-05
6.70805e-05
7.42728e-05
7.29658e-05
7.29606e-05
7.42765e-05
7.29606e-05
7.29554e-05
7.11818e-05
7.11854e-05
7.11819e-05
7.11855e-05
7.11857e-05
7.11821e-05
7.11857e-05
7.11821e-05
7.42653e-05
7.29643e-05
7.29596e-05
7.29596e-05
7.29548e-05
7.42658e-05
3.88274e-05
2.47165e-05
4.70327e-05
6.70761e-05
6.70753e-05
2.47097e-05
3.88357e-05
3.88638e-05
2.47256e-05
4.70442e-05
6.70789e-05
6.70794e-05
2.47209e-05
3.88673e-05
3.88279e-05
6.70751e-05
4.70349e-05
2.47107e-05
6.70751e-05
3.88221e-05
2.47141e-05
3.88659e-05
6.708e-05
4.70469e-05
2.47221e-05
6.70797e-05
3.88605e-05
2.47258e-05
7.42655e-05
7.29604e-05
7.29553e-05
7.29647e-05
7.29599e-05
7.42621e-05
7.17718e-05
3.34537e-05
7.26177e-05
4.0035e-05
7.26184e-05
4.00378e-05
7.17739e-05
7.15027e-05
6.22123e-05
6.89757e-05
7.14968e-05
6.22112e-05
7.17732e-05
3.3449e-05
7.26186e-05
4.00349e-05
7.26185e-05
7.17724e-05
4.00329e-05
7.14968e-05
6.22119e-05
6.89764e-05
6.22141e-05
7.15024e-05
7.42849e-05
7.29617e-05
7.29664e-05
7.29568e-05
7.29615e-05
7.42839e-05
3.88517e-05
2.4721e-05
6.70799e-05
4.70453e-05
6.70797e-05
3.88561e-05
2.47176e-05
3.88085e-05
2.47108e-05
6.7072e-05
4.70271e-05
2.47073e-05
3.88128e-05
6.70718e-05
7.42851e-05
7.29566e-05
7.29613e-05
7.29615e-05
7.428e-05
7.29663e-05
3.88538e-05
6.70798e-05
4.7048e-05
2.47199e-05
6.708e-05
2.47223e-05
3.88514e-05
3.88105e-05
6.70718e-05
4.70302e-05
2.47096e-05
2.4712e-05
6.7072e-05
3.88081e-05
7.11837e-05
7.11798e-05
7.17682e-05
7.26192e-05
4.00261e-05
3.34551e-05
7.26196e-05
4.00292e-05
7.17703e-05
7.14975e-05
6.89669e-05
6.21822e-05
6.21746e-05
7.14911e-05
7.14911e-05
6.21757e-05
6.89676e-05
6.21779e-05
7.14973e-05
7.17697e-05
3.34507e-05
7.26187e-05
4.00328e-05
7.262e-05
4.0024e-05
7.17689e-05
7.17715e-05
3.3454e-05
4.00346e-05
7.26181e-05
4.00366e-05
7.26183e-05
7.17722e-05
7.1502e-05
6.22084e-05
6.89728e-05
6.22071e-05
7.14961e-05
7.17729e-05
3.34493e-05
4.00337e-05
7.2619e-05
4.00317e-05
7.17721e-05
7.2619e-05
7.14961e-05
6.22078e-05
6.89736e-05
6.221e-05
7.15017e-05
7.17707e-05
3.34536e-05
7.26173e-05
4.00327e-05
7.26175e-05
4.00347e-05
7.17714e-05
7.15015e-05
6.21891e-05
6.89709e-05
7.14956e-05
6.21878e-05
7.17721e-05
3.34489e-05
7.26183e-05
4.00318e-05
7.17714e-05
7.26183e-05
4.00297e-05
7.14955e-05
6.21884e-05
6.89716e-05
6.21906e-05
7.15012e-05
7.42799e-05
7.29608e-05
7.29663e-05
7.29558e-05
7.29613e-05
7.42777e-05
3.88519e-05
2.47213e-05
4.70335e-05
6.70782e-05
6.70785e-05
2.47155e-05
3.88563e-05
3.88109e-05
2.47155e-05
4.7034e-05
6.70733e-05
2.47095e-05
6.70729e-05
3.88156e-05
3.88536e-05
6.70786e-05
4.70364e-05
2.47166e-05
6.70784e-05
2.47201e-05
3.88492e-05
3.8813e-05
6.70728e-05
4.70366e-05
2.47108e-05
2.47143e-05
6.70732e-05
3.88083e-05
7.42803e-05
7.29561e-05
7.29616e-05
7.29607e-05
7.29662e-05
7.42788e-05
7.1186e-05
7.11825e-05
7.17687e-05
3.34549e-05
4.00304e-05
7.26171e-05
4.00334e-05
7.2618e-05
7.17708e-05
7.15018e-05
6.21896e-05
6.89708e-05
6.21886e-05
7.14959e-05
7.17702e-05
3.34501e-05
4.00308e-05
7.26182e-05
4.00283e-05
7.17694e-05
7.26182e-05
7.14958e-05
6.21891e-05
6.89715e-05
6.2191e-05
7.15015e-05
7.17685e-05
3.34549e-05
4.00268e-05
7.2619e-05
4.00299e-05
7.26199e-05
7.17706e-05
7.14966e-05
6.21917e-05
6.89725e-05
7.149e-05
6.21898e-05
7.17699e-05
3.34505e-05
4.00271e-05
7.26209e-05
7.17691e-05
4.00245e-05
7.26207e-05
7.149e-05
6.21912e-05
6.89732e-05
6.21935e-05
7.14964e-05
7.11852e-05
7.11817e-05
7.11853e-05
7.11818e-05
1.92316e-05
1.92319e-05
1.88702e-05
1.92322e-05
1.92325e-05
1.95689e-05
1.9569e-05
2.32883e-05
1.89453e-05
1.89454e-05
1.78477e-05
1.89423e-05
1.89425e-05
2.32942e-05
1.92317e-05
1.92321e-05
1.887e-05
1.92321e-05
1.92323e-05
1.95691e-05
1.95691e-05
2.32879e-05
1.89452e-05
1.89452e-05
1.78475e-05
2.32939e-05
1.89422e-05
1.89422e-05
2.32874e-05
1.89451e-05
1.89447e-05
1.78471e-05
1.89417e-05
1.89422e-05
2.32934e-05
2.32944e-05
1.78458e-05
1.8942e-05
1.89416e-05
1.89453e-05
1.89448e-05
2.32864e-05
2.3295e-05
1.78461e-05
1.89421e-05
1.89422e-05
2.3287e-05
1.89454e-05
1.89454e-05
2.329e-05
1.89448e-05
1.89471e-05
1.78473e-05
1.89417e-05
1.89441e-05
2.32957e-05
2.32875e-05
1.89454e-05
1.8945e-05
1.78468e-05
1.89417e-05
2.32935e-05
1.89421e-05
2.32877e-05
1.89444e-05
1.89449e-05
1.78465e-05
1.89419e-05
1.89414e-05
2.32936e-05
1.92319e-05
1.92323e-05
1.88706e-05
1.92324e-05
1.92328e-05
1.95692e-05
1.95693e-05
1.92319e-05
1.9232e-05
1.88704e-05
1.92325e-05
1.92324e-05
1.95691e-05
1.95692e-05
1.92319e-05
1.9232e-05
1.88706e-05
1.92324e-05
1.92326e-05
1.95691e-05
1.95691e-05
1.88702e-05
1.92317e-05
1.92321e-05
1.9232e-05
1.92325e-05
1.95694e-05
1.95694e-05
1.88704e-05
1.92321e-05
1.92324e-05
1.92321e-05
1.92325e-05
1.95697e-05
1.95697e-05
1.88701e-05
1.92321e-05
1.92322e-05
1.92322e-05
1.92322e-05
1.95696e-05
1.95696e-05
1.88703e-05
1.92321e-05
1.92322e-05
1.92321e-05
1.92323e-05
1.95696e-05
1.95695e-05
1.77497e-05
2.11464e-05
1.74615e-05
1.94393e-05
2.11503e-05
1.74613e-05
1.77497e-05
1.84109e-05
1.99995e-05
3.16275e-05
2.57201e-05
1.99947e-05
2.571e-05
1.8414e-05
1.8414e-05
2.5711e-05
3.16364e-05
1.99948e-05
1.99994e-05
2.57187e-05
1.84111e-05
1.77491e-05
1.94367e-05
2.11509e-05
1.74615e-05
2.11458e-05
1.74618e-05
1.77501e-05
1.77498e-05
1.74614e-05
1.944e-05
2.11465e-05
1.74611e-05
2.11504e-05
1.77498e-05
1.84114e-05
2.00011e-05
2.57185e-05
3.16312e-05
2.57086e-05
1.84144e-05
1.99964e-05
1.77493e-05
1.94374e-05
1.74613e-05
2.11511e-05
1.74617e-05
2.11459e-05
1.77502e-05
1.84144e-05
2.57098e-05
3.16401e-05
1.99965e-05
2.57172e-05
1.84116e-05
2.00009e-05
2.32931e-05
1.78466e-05
1.89422e-05
1.89423e-05
1.89454e-05
1.89455e-05
2.32874e-05
1.92326e-05
1.92329e-05
1.88708e-05
1.92325e-05
1.9233e-05
1.95693e-05
1.95693e-05
1.92326e-05
1.92327e-05
1.88705e-05
1.92325e-05
1.92327e-05
1.95691e-05
1.95691e-05
1.92325e-05
1.92327e-05
1.88707e-05
1.92326e-05
1.92327e-05
1.95691e-05
1.95691e-05
1.77497e-05
1.94392e-05
2.11499e-05
1.74617e-05
2.11502e-05
1.74612e-05
1.77496e-05
1.84109e-05
1.99994e-05
2.57197e-05
3.16274e-05
1.8414e-05
1.99947e-05
2.57097e-05
1.77491e-05
1.94366e-05
2.11507e-05
1.74613e-05
1.77501e-05
2.11457e-05
1.74618e-05
1.8414e-05
2.57194e-05
3.16363e-05
1.99949e-05
1.99993e-05
2.57191e-05
1.84111e-05
1.77497e-05
1.94399e-05
1.74613e-05
2.11462e-05
1.74611e-05
2.11501e-05
1.77496e-05
1.84112e-05
2.0001e-05
2.57181e-05
3.16309e-05
1.84143e-05
1.99963e-05
2.57082e-05
1.77491e-05
1.94372e-05
1.74612e-05
2.11507e-05
1.77501e-05
1.74618e-05
2.11456e-05
1.84143e-05
2.57093e-05
3.16395e-05
1.99964e-05
2.00009e-05
2.57168e-05
1.84114e-05
2.32916e-05
1.78464e-05
1.89423e-05
1.89423e-05
1.89453e-05
1.89453e-05
2.32948e-05
1.77482e-05
1.74617e-05
1.94383e-05
2.11425e-05
2.11463e-05
1.74618e-05
1.77482e-05
1.84096e-05
2.00009e-05
2.5712e-05
3.16315e-05
2.57023e-05
1.84125e-05
1.99964e-05
1.77477e-05
1.94356e-05
2.11468e-05
1.7462e-05
2.11418e-05
1.74622e-05
1.77486e-05
1.84129e-05
2.57038e-05
3.16413e-05
1.99974e-05
2.57112e-05
1.84101e-05
2.00017e-05
1.77494e-05
2.11466e-05
1.74626e-05
1.94391e-05
2.11505e-05
1.74628e-05
1.77494e-05
1.84117e-05
2.00027e-05
3.16343e-05
2.5723e-05
2.57129e-05
1.99979e-05
1.84146e-05
1.84148e-05
2.5714e-05
3.16429e-05
1.9998e-05
2.57216e-05
1.84119e-05
2.00025e-05
1.77489e-05
1.94366e-05
2.11512e-05
1.74633e-05
2.11461e-05
1.74632e-05
1.77498e-05
1.77476e-05
1.74617e-05
1.94356e-05
2.11457e-05
1.77486e-05
2.11419e-05
1.74617e-05
1.84125e-05
1.99968e-05
2.57032e-05
3.16399e-05
2.57108e-05
1.84098e-05
2.0001e-05
1.77491e-05
1.94382e-05
2.11423e-05
1.74611e-05
2.11463e-05
1.7461e-05
1.77482e-05
1.84098e-05
2.57099e-05
2.00016e-05
3.16314e-05
1.84129e-05
2.57023e-05
1.99966e-05
1.77488e-05
2.11498e-05
1.74629e-05
1.94364e-05
1.77498e-05
2.1146e-05
1.74627e-05
1.84145e-05
1.99979e-05
3.16428e-05
2.57138e-05
2.57213e-05
2.00025e-05
1.84117e-05
1.84117e-05
2.572e-05
2.00023e-05
3.16342e-05
1.84147e-05
2.57126e-05
1.99979e-05
1.77503e-05
1.94391e-05
2.11465e-05
1.74617e-05
2.11504e-05
1.74617e-05
1.77493e-05
2.32923e-05
1.7846e-05
1.89421e-05
1.89416e-05
1.89449e-05
1.89453e-05
2.32865e-05
2.32875e-05
1.78469e-05
1.89455e-05
1.8945e-05
1.89422e-05
2.32935e-05
1.89417e-05
1.77488e-05
1.74617e-05
2.11457e-05
1.9439e-05
1.74618e-05
2.11496e-05
1.77487e-05
1.84106e-05
2.00004e-05
3.16299e-05
2.57183e-05
1.99956e-05
2.57082e-05
1.84135e-05
1.84138e-05
2.57092e-05
3.16385e-05
1.99958e-05
2.00003e-05
2.57168e-05
1.84109e-05
1.77483e-05
1.94364e-05
1.7462e-05
2.11503e-05
1.74622e-05
2.11452e-05
1.77492e-05
1.7749e-05
2.11496e-05
1.7462e-05
1.94367e-05
1.77501e-05
2.11458e-05
1.7462e-05
1.8414e-05
1.99949e-05
3.16364e-05
2.5711e-05
1.84111e-05
1.99994e-05
2.57186e-05
1.8411e-05