/*--------------------------------*- C++ -*----------------------------------*\
| =========                 |                                                 |
| \\      /  F ield         | OpenFOAM: The Open Source CFD Toolbox           |
|  \\    /   O peration     | Version:  v1912                                 |
|   \\  /    A nd           | Website:  www.openfoam.com                      |
|    \\/     M anipulation  |                                                 |
\*---------------------------------------------------------------------------*/
FoamFile
{
    version     2.0;
    format      ascii;
    class       volScalarField;
    location    "60";
    object      nut;
}
// * * * * * * * * * * * * * * * * * * * * * * * * * * * * * * * * * * * * * //

dimensions      [0 2 -1 0 0 0 0];


internalField   nonuniform List<scalar> 
57566
(
2.38848e-05
6.0098e-05
0.000141467
0.000165555
4.87465e-05
0.000112264
4.75877e-05
4.75885e-05
2.38869e-05
2.38859e-05
0.000112088
4.75789e-05
4.75891e-05
4.42084e-05
4.91726e-05
4.42131e-05
4.91771e-05
6.00661e-05
0.000141459
4.8734e-05
0.000165559
6.00665e-05
0.000141443
4.87303e-05
0.000165555
2.38872e-05
0.00011209
4.75891e-05
4.75783e-05
2.38873e-05
4.42261e-05
4.91669e-05
6.00967e-05
0.000141434
0.000165552
4.87719e-05
4.42162e-05
4.91722e-05
6.0067e-05
0.000141479
4.87394e-05
0.000165568
4.42233e-05
4.91671e-05
6.00837e-05
0.000141434
0.000165552
4.87647e-05
6.00952e-05
0.000141452
0.000165556
4.87263e-05
4.42212e-05
4.91713e-05
6.00672e-05
0.000141477
4.87263e-05
0.000165559
4.42118e-05
4.9175e-05
6.00823e-05
0.000141452
0.000165556
4.87258e-05
4.4218e-05
4.91714e-05
0.000112261
4.75797e-05
4.75958e-05
2.38873e-05
2.38842e-05
0.000112079
4.75765e-05
4.75924e-05
2.38868e-05
6.00948e-05
0.000141476
0.000165558
4.87285e-05
4.42288e-05
4.9171e-05
4.42284e-05
4.91719e-05
6.0085e-05
0.000141466
0.000165555
4.87449e-05
6.00813e-05
0.000141476
0.000165558
4.87281e-05
4.42258e-05
4.9171e-05
4.42255e-05
4.9172e-05
2.38869e-05
2.38861e-05
0.000112083
4.75847e-05
4.75854e-05
2.38864e-05
2.38856e-05
2.38846e-05
5.74955e-05
2.16307e-05
2.16279e-05
2.16301e-05
2.16273e-05
5.75006e-05
5.25949e-05
4.65505e-05
4.75815e-05
5.45647e-05
5.45505e-05
4.65506e-05
5.26052e-05
5.26291e-05
4.65413e-05
4.75823e-05
5.45632e-05
5.45494e-05
4.65413e-05
5.26387e-05
2.38874e-05
2.38865e-05
5.7495e-05
2.16306e-05
2.16268e-05
5.74861e-05
2.1631e-05
2.16278e-05
5.26059e-05
4.65517e-05
5.45582e-05
4.75863e-05
5.26001e-05
4.65512e-05
5.45714e-05
5.26341e-05
4.65403e-05
5.45556e-05
4.75965e-05
5.26281e-05
4.65407e-05
5.45699e-05
3.66821e-05
4.13277e-05
4.77677e-05
4.42202e-05
3.66821e-05
4.13275e-05
4.77767e-05
2.02874e-05
5.58401e-05
4.91719e-05
2.02869e-05
5.58505e-05
3.6685e-05
4.1328e-05
4.77945e-05
4.42246e-05
3.66849e-05
4.13278e-05
4.78023e-05
2.02897e-05
5.58928e-05
4.91765e-05
2.0289e-05
5.59019e-05
2.38878e-05
5.74922e-05
2.16276e-05
2.16299e-05
5.74838e-05
2.16281e-05
2.16304e-05
5.26305e-05
4.65414e-05
5.45533e-05
4.75963e-05
5.45672e-05
5.26247e-05
4.65412e-05
5.26032e-05
4.65505e-05
5.45581e-05
4.75862e-05
5.25975e-05
4.65504e-05
5.45718e-05
2.38879e-05
3.66818e-05
4.42177e-05
4.13279e-05
4.77842e-05
4.13281e-05
4.77782e-05
3.66818e-05
2.02871e-05
5.58611e-05
4.91675e-05
5.58527e-05
2.02878e-05
3.66844e-05
4.77818e-05
4.13281e-05
4.42276e-05
3.66843e-05
4.77904e-05
4.1328e-05
2.02892e-05
5.58719e-05
4.91717e-05
2.02885e-05
5.58813e-05
3.66812e-05
4.13278e-05
4.77814e-05
4.42276e-05
3.66812e-05
4.13275e-05
4.77845e-05
2.02876e-05
5.5856e-05
4.91665e-05
2.02868e-05
5.58614e-05
3.66833e-05
4.42125e-05
4.13272e-05
4.77952e-05
4.13274e-05
4.77896e-05
3.66833e-05
2.02886e-05
5.58797e-05
4.91718e-05
5.58734e-05
2.02893e-05
3.66854e-05
4.77939e-05
4.13275e-05
4.42234e-05
3.66853e-05
4.7802e-05
4.13274e-05
2.02904e-05
5.58911e-05
4.91744e-05
2.02897e-05
5.58996e-05
3.66828e-05
4.13275e-05
4.77924e-05
4.42225e-05
3.66828e-05
4.13273e-05
4.77953e-05
2.0289e-05
5.58743e-05
4.91709e-05
2.02883e-05
5.58788e-05
5.74928e-05
2.16271e-05
2.16304e-05
2.16265e-05
2.16298e-05
5.7497e-05
5.2623e-05
4.65392e-05
4.75729e-05
5.45612e-05
4.65392e-05
5.45467e-05
5.26326e-05
5.25972e-05
4.65512e-05
4.75903e-05
5.45716e-05
5.45577e-05
4.65513e-05
5.26066e-05
2.38867e-05
2.38847e-05
5.75037e-05
2.16262e-05
2.16295e-05
5.74969e-05
2.16267e-05
2.163e-05
5.26378e-05
4.65391e-05
5.4557e-05
4.758e-05
5.45642e-05
5.26347e-05
4.6539e-05
5.26116e-05
4.65511e-05
5.45671e-05
4.75953e-05
5.26087e-05
4.6551e-05
5.45742e-05
2.38873e-05
3.66837e-05
4.42203e-05
4.77963e-05
4.1328e-05
4.77908e-05
4.13282e-05
3.66836e-05
2.02888e-05
5.58789e-05
4.91715e-05
5.58725e-05
2.02894e-05
3.66854e-05
4.42201e-05
4.78e-05
4.13282e-05
4.77943e-05
4.13283e-05
3.66854e-05
2.02897e-05
5.58983e-05
4.91725e-05
5.58917e-05
2.02903e-05
3.66831e-05
4.77934e-05
4.13279e-05
4.42301e-05
3.6683e-05
4.77963e-05
4.13276e-05
2.02891e-05
5.58736e-05
4.91706e-05
2.02884e-05
5.58781e-05
3.66848e-05
4.77971e-05
4.1328e-05
4.42298e-05
3.66848e-05
4.77999e-05
4.13278e-05
2.029e-05
5.58937e-05
4.91715e-05
2.02893e-05
5.5898e-05
2.38863e-05
2.38856e-05
5.75049e-05
2.16298e-05
2.1627e-05
5.75005e-05
2.16303e-05
2.16275e-05
5.26106e-05
4.65505e-05
5.45604e-05
4.75881e-05
5.26075e-05
5.45677e-05
4.65504e-05
5.2644e-05
4.65412e-05
5.45587e-05
4.75887e-05
5.26413e-05
5.45655e-05
4.65411e-05
2.38869e-05
2.38861e-05
0.000186006
0.000202041
0.000202048
0.000214028
0.000186011
0.000202042
0.000202049
0.000214027
0.000186014
0.000202047
0.000202056
0.000214035
0.000186015
0.000202045
0.000202054
0.000214032
0.000186005
0.000202041
0.000202048
0.000214028
0.000186011
0.000202042
0.000202049
0.000214027
9.40315e-05
6.00697e-05
0.00010097
5.65867e-05
0.000100877
5.65679e-05
9.41522e-05
7.91649e-05
5.08198e-05
4.87451e-05
6.68561e-05
6.68145e-05
5.08035e-05
7.92653e-05
5.97424e-05
0.000112077
8.23135e-05
8.22994e-05
8.22562e-05
8.22406e-05
5.97456e-05
5.97458e-05
0.000112267
8.22485e-05
8.22359e-05
5.97432e-05
8.23062e-05
8.22965e-05
9.41575e-05
5.6535e-05
0.000100909
6.0093e-05
9.40383e-05
5.65482e-05
0.000100997
7.9266e-05
5.07597e-05
6.68041e-05
4.87284e-05
6.68448e-05
7.9167e-05
5.07594e-05
9.41531e-05
5.65185e-05
0.000100907
6.0093e-05
9.40352e-05
5.65292e-05
0.000100994
7.92579e-05
5.07724e-05
6.68024e-05
4.87291e-05
7.9159e-05
5.07717e-05
6.68439e-05
5.97463e-05
0.000112271
8.22353e-05
8.22502e-05
8.22947e-05
5.97439e-05
8.231e-05
9.40236e-05
6.00681e-05
0.00010099
5.6563e-05
0.000100901
5.65367e-05
9.41431e-05
7.91522e-05
5.08111e-05
4.87672e-05
6.68399e-05
5.07967e-05
7.92517e-05
6.67975e-05
9.41518e-05
5.65364e-05
0.00010091
6.00957e-05
9.40324e-05
5.65559e-05
0.000100998
7.92621e-05
5.07316e-05
6.68036e-05
4.87286e-05
6.6847e-05
7.91631e-05
5.07223e-05
9.41405e-05
0.000100903
5.65606e-05
6.00992e-05
9.40216e-05
0.000100988
5.65809e-05
7.92579e-05
5.08036e-05
6.68069e-05
4.87675e-05
7.91641e-05
5.08047e-05
6.68447e-05
9.40296e-05
6.00669e-05
0.000100989
5.66052e-05
0.000100903
5.65738e-05
9.41491e-05
7.91593e-05
5.0821e-05
4.87296e-05
6.68496e-05
6.68084e-05
5.08044e-05
7.92587e-05
9.41585e-05
5.65561e-05
0.000100891
6.00954e-05
9.40373e-05
5.65961e-05
0.000100981
7.92631e-05
5.07693e-05
6.68064e-05
4.87273e-05
7.91636e-05
6.68486e-05
5.07693e-05
9.41456e-05
0.000100897
5.65886e-05
6.00972e-05
9.40277e-05
0.000100982
5.65965e-05
7.92649e-05
5.08126e-05
6.6816e-05
4.87332e-05
7.91714e-05
5.08132e-05
6.68532e-05
5.97388e-05
0.000112075
8.22908e-05
8.23084e-05
8.225e-05
8.22312e-05
5.97421e-05
5.97506e-05
0.000112259
8.22486e-05
8.22669e-05
8.22928e-05
5.97366e-05
8.23105e-05
9.4021e-05
6.00658e-05
0.000100975
5.66065e-05
0.000100886
5.65759e-05
9.41424e-05
7.91539e-05
5.08217e-05
4.87345e-05
6.68458e-05
6.68035e-05
5.08056e-05
7.92545e-05
9.41495e-05
0.000100887
5.65728e-05
6.01005e-05
9.40294e-05
0.000100974
5.65842e-05
7.92712e-05
5.08118e-05
6.68227e-05
4.875e-05
7.91778e-05
6.686e-05
5.08128e-05
9.41394e-05
0.000100884
5.65877e-05
6.00969e-05
9.40198e-05
0.00010097
5.65939e-05
7.92607e-05
5.08127e-05
6.68117e-05
4.87339e-05
7.91658e-05
5.08132e-05
6.68491e-05
5.97541e-05
0.000112262
8.22715e-05
8.22568e-05
5.974e-05
8.23146e-05
8.23003e-05
2.38875e-05
2.38858e-05
0.000111983
4.76219e-05
4.76269e-05
4.42584e-05
4.91738e-05
4.42628e-05
6.00459e-05
0.000141339
4.87449e-05
0.000165462
6.00475e-05
0.00016546
4.42673e-05
4.9172e-05
6.00463e-05
0.000141365
4.87417e-05
0.000165463
4.4267e-05
4.91678e-05
6.00474e-05
0.000141338
0.000165452
4.8735e-05
2.38842e-05
0.000111981
4.76105e-05
4.76242e-05
2.38865e-05
6.0044e-05
0.000141363
0.000165459
4.87438e-05
6.00451e-05
0.000165464
4.42629e-05
4.91716e-05
4.42664e-05
2.38877e-05
2.38859e-05
5.75385e-05
2.16298e-05
2.16268e-05
5.75339e-05
2.16305e-05
2.16275e-05
5.26649e-05
4.6552e-05
5.45756e-05
4.76204e-05
5.26658e-05
4.6552e-05
5.4577e-05
5.2689e-05
4.65399e-05
5.45675e-05
4.76254e-05
5.26898e-05
4.65399e-05
5.45686e-05
3.66797e-05
4.13229e-05
4.78252e-05
4.42566e-05
3.66796e-05
4.1323e-05
4.78233e-05
2.02878e-05
5.58917e-05
4.91737e-05
2.02869e-05
5.58907e-05
3.66822e-05
4.13233e-05
4.78472e-05
4.42609e-05
3.66821e-05
4.13234e-05
4.78441e-05
3.66817e-05
4.78387e-05
4.13231e-05
4.42649e-05
3.66816e-05
4.78361e-05
4.13233e-05
2.02892e-05
5.59221e-05
4.91718e-05
2.02883e-05
5.59207e-05
3.6679e-05
4.1323e-05
4.78311e-05
4.42647e-05
3.6679e-05
4.13231e-05
4.78291e-05
2.02879e-05
5.58971e-05
4.91675e-05
2.02869e-05
5.58965e-05
2.38846e-05
5.75443e-05
2.16266e-05
2.16299e-05
5.75416e-05
2.16273e-05
2.16306e-05
5.26729e-05
4.65393e-05
5.45631e-05
4.76101e-05
5.45649e-05
5.2673e-05
4.65393e-05
5.26472e-05
4.65515e-05
5.45733e-05
4.76226e-05
5.26471e-05
4.65512e-05
5.45752e-05
2.38867e-05
3.66799e-05
4.78389e-05
4.13221e-05
4.4261e-05
3.66799e-05
4.78368e-05
4.13221e-05
2.02893e-05
5.59169e-05
4.91713e-05
2.02885e-05
5.59149e-05
3.66815e-05
4.78337e-05
4.13229e-05
4.4264e-05
3.66814e-05
4.78312e-05
4.1323e-05
0.000185932
0.000201983
0.000201989
0.000213987
0.000201981
0.000213984
0.000185921
0.000201979
0.000201979
0.000213977
0.000201985
0.00021398
5.97608e-05
0.000112169
8.21898e-05
8.21608e-05
5.97722e-05
8.22446e-05
8.22162e-05
9.40737e-05
5.65359e-05
0.000100795
6.00648e-05
9.39536e-05
5.65573e-05
0.000100893
7.92071e-05
5.07559e-05
6.67748e-05
4.87611e-05
6.68167e-05
7.91187e-05
5.07862e-05
9.40752e-05
5.65389e-05
0.000100797
6.00663e-05
9.39523e-05
5.65632e-05
0.000100895
9.4068e-05
5.65377e-05
0.000100784
6.00654e-05
9.39455e-05
5.65695e-05
0.00010088
7.92014e-05
5.07599e-05
6.67655e-05
4.87624e-05
6.68079e-05
7.91119e-05
5.07916e-05
9.40636e-05
0.000100786
5.65353e-05
6.0066e-05
9.39433e-05
0.000100881
5.65638e-05
7.91947e-05
5.07553e-05
6.67586e-05
4.87543e-05
7.91054e-05
5.07858e-05
6.68011e-05
5.97577e-05
0.000112167
8.21724e-05
8.21898e-05
8.22276e-05
5.97694e-05
8.22445e-05
9.40682e-05
0.000100777
5.65396e-05
6.0063e-05
9.39467e-05
0.000100874
5.65669e-05
7.92065e-05
5.07658e-05
6.67741e-05
4.87596e-05
7.91165e-05
6.68167e-05
5.07969e-05
9.40671e-05
0.000100786
5.65334e-05
6.00639e-05
9.39445e-05
0.000100882
5.6553e-05
0.000185923
0.000141369
0.000141355
0.000111987
0.000185929
0.000141365
0.000141359
0.000111987
0.000141337
0.000141332
0.000141331
0.000141332
0.000111989
0.000112179
0.000141343
0.000141366
0.000141342
0.000141367
0.000141358
0.000141366
0.000112174
0.000111983
0.000141338
0.000141335
0.000112002
0.000141367
0.000141335
0.000141346
0.000111977
0.000141369
4.42586e-05
4.91739e-05
4.42585e-05
4.91721e-05
2.38869e-05
2.38875e-05
0.000185927
0.000185915
0.000185926
0.00018593
0.000185927
0.000185918
0.000185925
6.00639e-05
4.87383e-05
0.000165462
0.000141371
4.87406e-05
0.000165465
6.00477e-05
6.00605e-05
0.000165456
4.87446e-05
0.000141359
0.00016546
6.00444e-05
4.87466e-05
4.76224e-05
4.76229e-05
0.000112179
4.76213e-05
4.76217e-05
4.42595e-05
4.91732e-05
4.42587e-05
4.91735e-05
2.38868e-05
2.38869e-05
4.42681e-05
4.91723e-05
4.91717e-05
4.42676e-05
0.00018593
0.00018592
0.000185927
6.00641e-05
4.8738e-05
0.000165459
0.000141366
6.00476e-05
4.87455e-05
0.000165461
2.38842e-05
2.38849e-05
6.00607e-05
0.000165456
4.87438e-05
0.000141362
6.00443e-05
0.000165458
4.87461e-05
4.7622e-05
4.76222e-05
0.000112179
4.76187e-05
4.7619e-05
4.4263e-05
4.91769e-05
4.91765e-05
4.42625e-05
6.00611e-05
4.87465e-05
0.000165456
0.000141325
0.000165459
6.00458e-05
4.8748e-05
6.00631e-05
4.87469e-05
0.000165454
0.000141335
4.87492e-05
0.000165457
6.00474e-05
4.42532e-05
4.91729e-05
4.42599e-05
4.91724e-05
4.42578e-05
4.91765e-05
4.91767e-05
4.42643e-05
6.0049e-05
0.000141332
4.87476e-05
0.000165456
0.000165457
6.00613e-05
4.8742e-05
6.00509e-05
0.000141333
4.8749e-05
0.000165455
4.87433e-05
0.000165455
6.00629e-05
4.76326e-05
4.76181e-05
0.000112182
4.76303e-05
4.76169e-05
2.38873e-05
2.38879e-05
2.38874e-05
2.3887e-05
0.000112006
4.76309e-05
4.76173e-05
4.76276e-05
4.76128e-05
2.38879e-05
2.38874e-05
4.42631e-05
4.91753e-05
4.91749e-05
4.42627e-05
6.00624e-05
0.000165457
4.87429e-05
0.000141347
0.000165461
4.87452e-05
6.00464e-05
4.42624e-05
4.91721e-05
4.91718e-05
4.4262e-05
6.00518e-05
0.00014137
4.87406e-05
0.00016546
4.87348e-05
0.000165466
6.00639e-05
4.42574e-05
4.91749e-05
4.91752e-05
4.42633e-05
6.00503e-05
0.000141345
0.000165457
4.87452e-05
0.000165459
4.87394e-05
6.00621e-05
4.42567e-05
4.91718e-05
4.9172e-05
4.42626e-05
6.00604e-05
0.000165458
4.87416e-05
0.00014137
0.000165462
4.87439e-05
6.00441e-05
4.42642e-05
4.91717e-05
4.4264e-05
4.91712e-05
4.42673e-05
4.91715e-05
4.91712e-05
4.4267e-05
6.00487e-05
0.000141356
0.000165456
4.87463e-05
0.000165459
6.00609e-05
4.87404e-05
6.00484e-05
0.000141368
0.000165459
4.87439e-05
0.00016546
4.87382e-05
6.00606e-05
4.42586e-05
4.91713e-05
4.42642e-05
4.91714e-05
4.42617e-05
4.91712e-05
4.91714e-05
4.42674e-05
2.38862e-05
2.38868e-05
2.38853e-05
2.38859e-05
0.000112004
4.76234e-05
4.76237e-05
4.76181e-05
4.7619e-05
2.38868e-05
2.38863e-05
2.38859e-05
2.38855e-05
2.3887e-05
2.38881e-05
2.3886e-05
2.38864e-05
4.76244e-05
4.76297e-05
0.000112172
4.76232e-05
4.76286e-05
4.4264e-05
4.91767e-05
4.42584e-05
4.91764e-05
6.00625e-05
4.87417e-05
0.000165461
0.000141338
6.00499e-05
4.87473e-05
0.000165461
6.0064e-05
4.87432e-05
0.000165458
0.000141336
6.00515e-05
4.87504e-05
0.000165458
4.76275e-05
4.76138e-05
0.000112178
4.76297e-05
4.76168e-05
2.38874e-05
2.38873e-05
6.00635e-05
4.87412e-05
0.000165462
0.000141364
4.8744e-05
0.000165463
6.0048e-05
4.42679e-05
4.91678e-05
4.91675e-05
4.42676e-05
6.00641e-05
0.00016545
4.87349e-05
0.000141338
0.000165452
4.87374e-05
6.00484e-05
4.42607e-05
4.91751e-05
4.42576e-05
4.91748e-05
6.00625e-05
0.00016546
4.87393e-05
0.000141346
6.00502e-05
0.000165461
4.87469e-05
4.426e-05
4.9172e-05
4.42569e-05
4.91717e-05
4.7613e-05
4.76274e-05
0.000112168
4.7612e-05
4.76257e-05
2.38865e-05
2.38871e-05
6.00613e-05
0.000165462
4.87381e-05
0.000141369
6.00489e-05
0.000165462
4.87514e-05
4.42642e-05
4.91715e-05
4.42586e-05
4.91713e-05
4.42674e-05
4.91714e-05
4.42618e-05
4.91712e-05
2.38863e-05
2.38863e-05
2.38854e-05
2.38854e-05
3.6679e-05
4.13227e-05
4.4255e-05
4.78246e-05
4.1323e-05
4.78223e-05
3.66795e-05
2.02875e-05
5.58936e-05
4.91734e-05
5.58925e-05
2.02869e-05
3.66796e-05
4.42567e-05
4.13229e-05
4.78261e-05
4.13233e-05
4.78221e-05
3.66796e-05
2.02866e-05
5.58939e-05
4.91729e-05
5.58899e-05
2.02875e-05
2.38875e-05
2.38869e-05
5.75418e-05
2.16307e-05
2.16279e-05
2.163e-05
2.16272e-05
5.75474e-05
5.26464e-05
5.45712e-05
4.76204e-05
4.65507e-05
5.45763e-05
4.65508e-05
5.26446e-05
5.26798e-05
5.457e-05
4.76208e-05
4.65414e-05
5.45749e-05
4.65414e-05
5.26784e-05
5.26413e-05
4.65507e-05
4.76189e-05
5.45766e-05
5.45708e-05
4.65507e-05
5.26432e-05
5.2675e-05
4.65414e-05
4.76193e-05
5.45752e-05
5.45696e-05
4.65414e-05
5.26766e-05
5.75475e-05
2.16302e-05
2.16274e-05
2.16308e-05
2.1628e-05
5.75445e-05
3.66795e-05
4.42559e-05
4.1323e-05
4.7825e-05
4.13232e-05
4.78227e-05
3.668e-05
2.02878e-05
5.5895e-05
4.91731e-05
2.02869e-05
5.58937e-05
3.66798e-05
4.4257e-05
4.13229e-05
4.78267e-05
3.66796e-05
4.13233e-05
4.78225e-05
2.02869e-05
5.58946e-05
4.91738e-05
5.58905e-05
2.02878e-05
2.38875e-05
2.38869e-05
3.66814e-05
4.78386e-05
4.13232e-05
4.42648e-05
4.78365e-05
4.13234e-05
3.6682e-05
2.02892e-05
4.91717e-05
5.59267e-05
5.59262e-05
2.02884e-05
2.02884e-05
5.59256e-05
4.91719e-05
5.59221e-05
2.02892e-05
3.66818e-05
4.42656e-05
4.78404e-05
4.13232e-05
4.78363e-05
4.13235e-05
3.66816e-05
2.38849e-05
2.38843e-05
5.75485e-05
2.16309e-05
2.16281e-05
2.16302e-05
2.16274e-05
5.75495e-05
5.26458e-05
5.45711e-05
4.65506e-05
4.76199e-05
5.26436e-05
5.45762e-05
4.65506e-05
5.26792e-05
5.45696e-05
4.65413e-05
4.76202e-05
5.26773e-05
5.45746e-05
4.65413e-05
5.75507e-05
2.16301e-05
2.16273e-05
5.75403e-05
2.16308e-05
2.1628e-05
5.26413e-05
4.65506e-05
4.76186e-05
5.45743e-05
5.45708e-05
4.65506e-05
5.26412e-05
5.2675e-05
4.65413e-05
4.76188e-05
5.45723e-05
5.45692e-05
4.65413e-05
5.26747e-05
3.6682e-05
4.13235e-05
4.78475e-05
4.42595e-05
4.13237e-05
4.78457e-05
3.66825e-05
2.02898e-05
4.91766e-05
5.59422e-05
5.59398e-05
2.02889e-05
2.02889e-05
5.59389e-05
4.91768e-05
5.59356e-05
2.02897e-05
3.66823e-05
4.42607e-05
4.13234e-05
4.78506e-05
4.1324e-05
4.78459e-05
3.66821e-05
3.66794e-05
4.13227e-05
4.4257e-05
4.78204e-05
3.66792e-05
4.13228e-05
4.7824e-05
2.02866e-05
5.58982e-05
4.91731e-05
2.02878e-05
5.58944e-05
3.66796e-05
4.42564e-05
4.1323e-05
4.78267e-05
3.668e-05
4.13229e-05
4.78245e-05
2.02875e-05
5.58896e-05
4.91723e-05
2.02866e-05
5.58953e-05
3.66824e-05
4.13236e-05
4.78433e-05
4.42616e-05
3.66821e-05
4.13236e-05
4.78465e-05
2.02889e-05
4.91767e-05
5.59416e-05
5.59387e-05
2.02897e-05
2.02897e-05
5.59353e-05
4.91765e-05
2.02889e-05
5.59405e-05
3.66823e-05
4.4261e-05
4.13236e-05
4.7848e-05
4.13235e-05
4.78461e-05
3.66825e-05
5.75385e-05
2.16283e-05
2.16308e-05
2.16276e-05
2.163e-05
5.75446e-05
5.26782e-05
5.45711e-05
4.76302e-05
4.65419e-05
4.65418e-05
5.4576e-05
5.26766e-05
5.2648e-05
5.45729e-05
4.76162e-05
4.65506e-05
5.45778e-05
4.65505e-05
5.26463e-05
5.26737e-05
4.65418e-05
4.76283e-05
5.45761e-05
4.65419e-05
5.45706e-05
5.26754e-05
5.26433e-05
4.65505e-05
4.76144e-05
5.4578e-05
5.45725e-05
4.65506e-05
5.26452e-05
5.75423e-05
2.16276e-05
2.16301e-05
2.16283e-05
2.16307e-05
5.75354e-05
2.3888e-05
2.38873e-05
2.38869e-05
2.38875e-05
5.75496e-05
2.16276e-05
2.16301e-05
5.7542e-05
2.16284e-05
2.16308e-05
5.26801e-05
5.4576e-05
4.76289e-05
4.65417e-05
5.45705e-05
4.65418e-05
5.26759e-05
5.26498e-05
5.45781e-05
4.76149e-05
4.65504e-05
4.65505e-05
5.45725e-05
5.26457e-05
5.26786e-05
4.65419e-05
5.45702e-05
4.76307e-05
5.45759e-05
5.26768e-05
4.65418e-05
5.26484e-05
4.65505e-05
5.45722e-05
4.76165e-05
5.26465e-05
4.65505e-05
5.45778e-05
5.75417e-05
2.16285e-05
2.16309e-05
2.16277e-05
2.16301e-05
5.75447e-05
2.38873e-05
2.3888e-05
3.66825e-05
4.78472e-05
4.13231e-05
4.42596e-05
4.78454e-05
4.13232e-05
3.6683e-05
2.02905e-05
4.9175e-05
5.59417e-05
5.59393e-05
2.02896e-05
2.02896e-05
5.5938e-05
4.91752e-05
5.5935e-05
2.02904e-05
3.66828e-05
4.42608e-05
4.78503e-05
4.13228e-05
4.78456e-05
4.13233e-05
3.66826e-05
3.66804e-05
4.1323e-05
4.78426e-05
4.42589e-05
4.13231e-05
4.78408e-05
3.66809e-05
2.02893e-05
4.91718e-05
5.5922e-05
5.59197e-05
2.02885e-05
2.02885e-05
5.59185e-05
4.91721e-05
5.59155e-05
2.02893e-05
3.66807e-05
4.42601e-05
4.13227e-05
4.78458e-05
4.13232e-05
4.78411e-05
3.66805e-05
3.66829e-05
4.78429e-05
4.13232e-05
4.42612e-05
3.66827e-05
4.78461e-05
4.13232e-05
2.02895e-05
4.91752e-05
5.59407e-05
5.59377e-05
2.02904e-05
2.02904e-05
5.59342e-05
4.91748e-05
2.02896e-05
5.59396e-05
3.66828e-05
4.42598e-05
4.78476e-05
4.13231e-05
4.78458e-05
4.13231e-05
3.6683e-05
3.66808e-05
4.13231e-05
4.78384e-05
4.42605e-05
3.66805e-05
4.13231e-05
4.78416e-05
2.02884e-05
4.9172e-05
5.59211e-05
5.59182e-05
2.02893e-05
2.02893e-05
5.59144e-05
4.91717e-05
2.02884e-05
5.59202e-05
3.66807e-05
4.42592e-05
4.13229e-05
4.78431e-05
4.1323e-05
4.78413e-05
3.66809e-05
3.66798e-05
4.13224e-05
4.42608e-05
4.78387e-05
4.78367e-05
4.13224e-05
3.66803e-05
2.02895e-05
5.59226e-05
4.91713e-05
5.59202e-05
2.02886e-05
3.66802e-05
4.4262e-05
4.78416e-05
4.13221e-05
4.7837e-05
4.13225e-05
3.668e-05
2.02886e-05
5.59191e-05
4.91715e-05
5.5916e-05
2.02894e-05
3.66813e-05
4.78339e-05
4.13232e-05
4.4264e-05
4.78319e-05
4.13232e-05
3.66819e-05
2.02892e-05
4.91712e-05
5.59164e-05
5.59151e-05
2.02883e-05
2.02883e-05
5.59157e-05
4.91715e-05
5.59117e-05
2.02892e-05
3.66817e-05
4.42649e-05
4.78365e-05
4.13229e-05
4.7832e-05
4.13233e-05
3.66815e-05
3.66802e-05
4.13224e-05
4.42622e-05
4.78344e-05
3.668e-05
4.78374e-05
4.13225e-05
2.02886e-05
5.59215e-05
4.91715e-05
5.59187e-05
2.02894e-05
3.66801e-05
4.42609e-05
4.78389e-05
4.13224e-05
4.78369e-05
4.13225e-05
3.66803e-05
2.02894e-05
5.59157e-05
4.9171e-05
2.02886e-05
5.59209e-05
3.66817e-05
4.78295e-05
4.13236e-05
4.42652e-05
3.66815e-05
4.78328e-05
4.13236e-05
2.02883e-05
4.91715e-05
5.59169e-05
5.59133e-05
2.02892e-05
2.02892e-05
5.59109e-05
4.91712e-05
2.02883e-05
5.59161e-05
3.66816e-05
4.42642e-05
4.78344e-05
4.13233e-05
4.78325e-05
4.13233e-05
3.66818e-05
2.38869e-05
2.38863e-05
2.3886e-05
2.38854e-05
5.75481e-05
2.163e-05
2.16272e-05
5.75435e-05
2.16307e-05
2.16279e-05
5.26465e-05
5.45767e-05
4.76212e-05
4.65506e-05
5.26424e-05
5.4571e-05
4.65506e-05
5.26802e-05
5.45751e-05
4.76216e-05
4.65413e-05
5.26758e-05
5.45695e-05
4.65413e-05
5.26458e-05
4.65507e-05
5.45706e-05
4.76223e-05
5.2644e-05
5.45764e-05
4.65507e-05
5.26792e-05
4.65413e-05
5.45693e-05
4.7623e-05
5.26777e-05
5.45749e-05
4.65413e-05
5.75357e-05
2.16307e-05
2.16279e-05
5.7543e-05
2.163e-05
2.16272e-05
2.38863e-05
2.38869e-05
2.38854e-05
2.3886e-05
2.38879e-05
2.38875e-05
2.38864e-05
2.38858e-05
5.75285e-05
2.16305e-05
2.16275e-05
2.16298e-05
2.16273e-05
5.75357e-05
5.26713e-05
5.45736e-05
4.76224e-05
4.65474e-05
4.65506e-05
5.45798e-05
5.26702e-05
5.26955e-05
5.45699e-05
4.76283e-05
4.65446e-05
4.65414e-05
5.45738e-05
5.26947e-05
5.26659e-05
4.65521e-05
4.76208e-05
5.4581e-05
4.65519e-05
5.2666e-05
5.45754e-05
5.26894e-05
4.65399e-05
4.76265e-05
5.4573e-05
4.65404e-05
5.26897e-05
5.45675e-05
5.75329e-05
2.16293e-05
2.16277e-05
2.16304e-05
2.16282e-05
5.75254e-05
3.6682e-05
4.42607e-05
4.13235e-05
4.78486e-05
4.13236e-05
4.78469e-05
3.66825e-05
2.02897e-05
5.59372e-05
4.91764e-05
2.02889e-05
5.59414e-05
3.66823e-05
4.4262e-05
4.13237e-05
4.78437e-05
4.13237e-05
3.66821e-05
4.7847e-05
2.02889e-05
5.5938e-05
4.91767e-05
5.59383e-05
2.02897e-05
5.75504e-05
2.16285e-05
2.1631e-05
2.16278e-05
2.16302e-05
5.75516e-05
5.26793e-05
5.45702e-05
4.65418e-05
4.76313e-05
4.65417e-05
5.26774e-05
5.45759e-05
5.26491e-05
5.45723e-05
4.65505e-05
4.76171e-05
5.45779e-05
5.2647e-05
4.65504e-05
5.75549e-05
2.16278e-05
2.16302e-05
2.16285e-05
5.7546e-05
2.16309e-05
5.2675e-05
4.65418e-05
4.76295e-05
5.45737e-05
4.65418e-05
5.45705e-05
5.26747e-05
5.26446e-05
4.65504e-05
4.76153e-05
5.45758e-05
5.45727e-05
4.65505e-05
5.26441e-05
2.38879e-05
2.38873e-05
3.66788e-05
4.13231e-05
4.78312e-05
4.42647e-05
4.13232e-05
4.78292e-05
3.66794e-05
2.02879e-05
4.91675e-05
5.59011e-05
5.58998e-05
2.0287e-05
2.0287e-05
5.59003e-05
4.91677e-05
5.58963e-05
2.02879e-05
3.66792e-05
4.42656e-05
4.13229e-05
4.78339e-05
4.13233e-05
4.78294e-05
3.6679e-05
3.66825e-05
4.426e-05
4.78461e-05
4.13229e-05
4.78465e-05
4.1323e-05
3.66827e-05
2.02904e-05
5.59367e-05
4.91748e-05
5.59405e-05
2.02895e-05
3.66828e-05
4.42612e-05
4.78434e-05
4.13232e-05
4.78467e-05
3.66826e-05
4.13231e-05
2.02895e-05
5.59372e-05
4.91751e-05
5.59376e-05
2.02903e-05
3.66803e-05
4.42594e-05
4.13228e-05
4.78416e-05
4.13228e-05
4.78419e-05
3.66805e-05
2.02893e-05
5.59171e-05
4.91717e-05
2.02884e-05
5.59209e-05
3.66807e-05
4.42606e-05
4.1323e-05
4.78388e-05
3.66805e-05
4.1323e-05
4.78421e-05
2.02884e-05
5.59173e-05
4.91719e-05
5.59177e-05
2.02892e-05
5.75403e-05
2.16273e-05
2.16306e-05
2.16266e-05
2.16299e-05
5.75434e-05
5.26747e-05
5.45635e-05
4.76111e-05
4.65396e-05
4.65395e-05
5.45682e-05
5.26728e-05
5.26491e-05
5.45741e-05
4.76251e-05
4.65515e-05
5.45791e-05
4.65515e-05
5.26474e-05
5.26701e-05
4.65396e-05
4.76094e-05
5.45687e-05
4.65395e-05
5.45633e-05
5.2672e-05
5.26443e-05
4.65515e-05
4.76235e-05
5.45791e-05
5.45735e-05
4.65516e-05
5.26461e-05
5.75442e-05
2.16269e-05
2.16299e-05
2.16273e-05
2.16306e-05
5.75395e-05
2.38871e-05
2.38866e-05
3.66798e-05
4.42609e-05
4.78393e-05
4.13223e-05
4.78374e-05
4.13225e-05
3.66803e-05
2.02894e-05
5.59173e-05
4.91713e-05
5.59216e-05
2.02886e-05
3.66801e-05
4.42621e-05
4.78346e-05
4.13225e-05
4.78377e-05
3.66799e-05
4.13225e-05
2.02886e-05
5.59207e-05
4.91715e-05
5.59178e-05
2.02894e-05
3.66813e-05
4.42642e-05
4.7835e-05
4.1323e-05
4.78331e-05
4.13232e-05
3.66818e-05
2.02892e-05
5.59122e-05
4.91712e-05
2.02883e-05
5.59164e-05
3.66817e-05
4.42652e-05
4.783e-05
4.13235e-05
3.66814e-05
4.78332e-05
4.13235e-05
2.02883e-05
5.59146e-05
4.91714e-05
5.59133e-05
2.02892e-05
2.38868e-05
2.38862e-05
2.3886e-05
2.38854e-05
0.000201973
0.000201983
0.000185927
0.000201976
0.000201986
0.00021398
0.000213981
5.97821e-05
8.21946e-05
8.21807e-05
0.000112184
8.22486e-05
8.2235e-05
5.97726e-05
0.000201977
0.000201987
0.00018593
0.000201982
0.000201988
0.000213985
0.000213985
5.97818e-05
8.2194e-05
8.21802e-05
0.000112184
5.97724e-05
8.22479e-05
8.22346e-05
5.97827e-05
8.21791e-05
8.21939e-05
0.000112188
8.22488e-05
8.22338e-05
5.97731e-05
5.97727e-05
0.000111996
8.22294e-05
8.22447e-05
8.21844e-05
8.21995e-05
5.9784e-05
5.97717e-05
0.000111993
8.22432e-05
8.22299e-05
5.97828e-05
8.2199e-05
8.21852e-05
5.97821e-05
8.21841e-05
8.21663e-05
0.00011218
8.22423e-05
8.22153e-05
5.97725e-05
5.97832e-05
8.21892e-05
8.22044e-05
0.000112183
8.22491e-05
5.97737e-05
8.22339e-05
5.97785e-05
8.21721e-05
8.21894e-05
0.000112173
8.22433e-05
8.22264e-05
5.9769e-05
0.000201974
0.000201984
0.00018593
0.000201977
0.000201987
0.000213981
0.000213982
0.000201975
0.000201974
0.000185919
0.000201976
0.000201978
0.000213977
0.000213977
0.000201975
0.000201979
0.000185929
0.000201977
0.000201982
0.000213978
0.000213978
0.000185929
0.000201976
0.000201988
0.000201975
0.000201987
0.000213982
0.000213984
0.000185928
0.000201975
0.000201985
0.000201975
0.000201986
0.000213983
0.000213983
0.000185918
0.000201977
0.000201976
0.000201974
0.000201976
0.000213978
0.000213979
0.000185927
0.000201975
0.00020198
0.000201976
0.00020198
0.00021398
0.00021398
9.39482e-05
5.65551e-05
0.00010088
6.00498e-05
5.65434e-05
0.000100788
9.40774e-05
7.92061e-05
6.67726e-05
4.8739e-05
5.07651e-05
6.68145e-05
5.07672e-05
7.91136e-05
7.91161e-05
5.07675e-05
4.87365e-05
6.68119e-05
6.67752e-05
5.07642e-05
7.92096e-05
9.4072e-05
6.00663e-05
5.65422e-05
0.00010079
5.65566e-05
0.000100882
9.39518e-05
9.39414e-05
0.000100869
6.00464e-05
5.65525e-05
0.000100777
5.65411e-05
9.40685e-05
7.92048e-05
6.67736e-05
5.07666e-05
4.87454e-05
5.07686e-05
7.91142e-05
6.68152e-05
9.40638e-05
6.00632e-05
0.000100779
5.65401e-05
0.000100872
5.65543e-05
9.39452e-05
7.91165e-05
5.07689e-05
4.87424e-05
6.68124e-05
5.07657e-05
7.92082e-05
6.67761e-05
5.97733e-05
0.000111998
8.22437e-05
8.22303e-05
8.21992e-05
8.21855e-05
5.9783e-05
0.000201978
0.000201987
0.000185931
0.000201978
0.000201988
0.000213982
0.000213981
0.000201979
0.000201978
0.00018592
0.000201978
0.000201978
0.000213976
0.000213975
0.000201976
0.000201982
0.000185928
0.000201977
0.000201982
0.000213977
0.000213977
9.39476e-05
6.00497e-05
5.65541e-05
0.000100882
5.65434e-05
0.000100786
9.40764e-05
7.92062e-05
6.67729e-05
5.07646e-05
4.87388e-05
7.91139e-05
6.68145e-05
5.07668e-05
9.40717e-05
6.00662e-05
5.65421e-05
0.000100788
9.39516e-05
5.65564e-05
0.000100882
7.91162e-05
5.07782e-05
4.87363e-05
6.68123e-05
6.67755e-05
5.07664e-05
7.92079e-05
9.39418e-05
6.00464e-05
0.000100869
5.65527e-05
0.000100777
5.6541e-05
9.407e-05
7.92065e-05
6.67741e-05
5.07661e-05
4.87445e-05
7.91143e-05
6.6816e-05
5.07682e-05
9.40652e-05
6.00631e-05
0.000100778
5.65399e-05
9.3946e-05
0.000100873
5.65541e-05
7.9117e-05
5.07685e-05
4.8742e-05
6.68133e-05
6.67766e-05
5.07653e-05
7.921e-05
5.97665e-05
0.000111997
8.2244e-05
8.22305e-05
8.21985e-05
8.21848e-05
5.97844e-05
9.39447e-05
0.000100883
6.00471e-05
5.65475e-05
5.65362e-05
0.000100794
9.4071e-05
7.92081e-05
6.67729e-05
5.07562e-05
4.87473e-05
5.07582e-05
7.9118e-05
6.68112e-05
9.40682e-05
6.00643e-05
5.65356e-05
0.000100797
5.65494e-05
0.000100888
9.395e-05
7.91178e-05
5.07583e-05
4.87438e-05
6.68002e-05
5.07552e-05
7.92066e-05
6.67661e-05
9.39427e-05
5.65519e-05
0.000100889
6.0049e-05
5.65403e-05
0.000100801
9.40714e-05
7.91973e-05
6.67658e-05
4.87476e-05
5.07653e-05
5.07673e-05
6.68076e-05
7.91062e-05
7.91084e-05
5.07674e-05
4.87451e-05
6.68051e-05
5.07643e-05
7.92004e-05
6.67685e-05
9.40666e-05
6.00658e-05
5.65392e-05
0.000100807
5.65535e-05
0.000100895
9.39479e-05
9.40652e-05
0.000100793
6.00635e-05
5.65374e-05
9.39468e-05
5.65492e-05
0.000100882
7.91108e-05
6.68067e-05
5.07586e-05
4.87434e-05
5.07554e-05
7.92048e-05
6.67729e-05
9.39534e-05
6.00471e-05
5.65483e-05
0.000100874
5.65366e-05
0.000100784
9.40722e-05
7.92035e-05
5.07546e-05
6.67677e-05
4.87459e-05
7.91116e-05
5.0758e-05
6.68113e-05
9.40647e-05
5.65418e-05
0.000100803
6.00652e-05
9.39462e-05
5.65537e-05
0.000100889
7.91033e-05
6.68053e-05
4.87449e-05
5.07675e-05
5.07642e-05
6.67688e-05
7.91979e-05
7.91969e-05
5.07636e-05
6.67711e-05
4.87474e-05
7.91068e-05
5.0767e-05
6.68078e-05
9.39519e-05
6.00487e-05
5.65523e-05
0.000100878
5.65405e-05
0.000100788
9.40712e-05
5.9774e-05
0.000111999
8.22292e-05
8.22443e-05
8.2199e-05
8.21842e-05
5.97838e-05
5.97831e-05
0.000112185
8.21891e-05
8.22041e-05
8.2234e-05
5.97735e-05
8.22492e-05
9.39415e-05
0.000100883
5.65509e-05
6.00484e-05
0.000100794
5.65392e-05
9.40687e-05
7.92024e-05
6.67715e-05
4.87436e-05
5.07629e-05
6.68131e-05
5.07649e-05
7.91109e-05
7.91134e-05
5.07652e-05
4.87411e-05
6.68102e-05
6.67737e-05
5.0762e-05
7.92054e-05
9.40641e-05
6.00649e-05
0.000100796
5.6538e-05
0.000100887
5.65523e-05
9.39452e-05
9.40701e-05
5.65446e-05
0.000100795
6.00661e-05
9.39513e-05
5.65565e-05
0.000100883
7.91119e-05
6.68122e-05
4.87365e-05
5.07674e-05