/*--------------------------------*- C++ -*----------------------------------*\
| =========                 |                                                 |
| \\      /  F ield         | OpenFOAM: The Open Source CFD Toolbox           |
|  \\    /   O peration     | Version:  v1912                                 |
|   \\  /    A nd           | Website:  www.openfoam.com                      |
|    \\/     M anipulation  |                                                 |
\*---------------------------------------------------------------------------*/
FoamFile
{
    version     2.0;
    format      ascii;
    class       surfaceScalarField;
    location    "60";
    object      phi;
}
// * * * * * * * * * * * * * * * * * * * * * * * * * * * * * * * * * * * * * //

dimensions      [0 3 -1 0 0 0 0];
oriented        oriented;


internalField   nonuniform List<scalar> 
166251
(
-5.64208e-09
-1.34385e-08
0.000102257
-0.000102238
-1.38672e-09
5.8853e-08
0.000262913
-0.000262755
-2.14329e-07
-1.71172e-09
6.19623e-09
1.27598e-06
0.00111243
-3.14267e-09
-9.71315e-07
3.09942e-07
-3.16533e-07
9.72449e-07
-1.2709e-06
3.0122e-07
-3.04039e-07
-3.58866e-09
0.0011096
3.0629e-09
-1.03633e-06
8.45279e-07
-8.47668e-07
1.03624e-06
1.61432e-08
3.76817e-08
0.000260887
-7.92768e-09
-0.000260784
-1.49542e-07
-1.31052e-06
-1.27607e-06
0.000272575
-0.00027051
2.57847e-07
2.63226e-07
-1.86733e-08
1.11973e-08
0.000295851
8.88531e-09
-0.000295811
-4.18475e-08
-1.86777e-08
1.11855e-08
0.000295792
9.47338e-09
-0.000295754
-3.9447e-08
1.50438e-08
4.38829e-09
0.000102253
1.27138e-08
4.39351e-09
0.000102255
1.31372e-06
1.27114e-06
0.000270512
-2.50231e-07
-2.5565e-07
1.73804e-08
-1.13658e-08
4.4064e-08
0.00029581
1.75762e-08
-8.97213e-09
4.14402e-08
0.000295762
1.57342e-10
5.78914e-08
-1.98514e-08
5.12588e-10
0.000245632
4.27233e-08
-4.66887e-09
0.000204841
5.795e-08
-1.98858e-08
4.26872e-10
0.000245671
4.05861e-08
-4.428e-09
-4.65442e-09
0.000204892
1.58826e-09
1.93712e-09
2.10556e-07
0.000262768
7.06858e-09
-2.34873e-09
1.31881e-06
-3.12521e-07
3.06716e-07
9.72637e-07
-3.16542e-07
3.04298e-07
-9.76914e-07
0.00111198
4.53931e-09
1.56848e-07
0.000260784
4.14327e-09
3.21163e-09
1.04202e-06
-8.53173e-07
-1.04191e-06
8.50928e-07
0.00110996
1.13555e-09
2.08036e-07
0.000262801
6.5088e-09
-1.31941e-06
2.72407e-09
9.78281e-07
-3.16795e-07
-9.80107e-07
3.09924e-07
1.32441e-06
-3.15482e-07
3.12442e-07
0.00111242
-1.502e-08
4.65191e-09
1.54492e-07
0.000260796
8.29337e-09
1.04505e-06
-8.5333e-07
-1.04491e-06
8.51019e-07
0.0011101
1.28357e-08
0.000102261
1.27645e-06
0.000270534
-2.53161e-07
-2.58005e-07
-8.61642e-09
4.40582e-08
0.000295749
-1.49841e-08
1.47847e-08
-1.16972e-08
4.14698e-08
0.000295864
4.39009e-09
0.000102262
-5.88679e-08
0.000245662
-0.000245621
1.77229e-08
1.51886e-10
-3.99149e-08
0.000204849
5.90018e-10
-0.000204815
0.000262911
-0.000262756
-2.1434e-07
-1.22294e-09
6.57367e-09
0.00111209
1.31609e-06
-2.69547e-09
-9.74364e-07
3.09862e-07
9.75252e-07
-3.16677e-07
-1.31114e-06
3.09556e-07
-3.12646e-07
0.00110982
3.12927e-09
-1.03647e-06
8.45348e-07
-8.44987e-07
1.03922e-06
0.000260828
1.85365e-08
-1.03549e-08
-0.000260727
-1.49351e-07
6.06478e-08
2.67009e-10
4.03714e-10
-1.78462e-08
0.00024566
4.05302e-08
-4.67304e-09
0.000204874
1.8581e-09
1.62787e-09
2.10594e-07
0.000262788
5.92785e-09
-2.88655e-09
1.27878e-06
-3.04109e-07
3.06814e-07
9.75473e-07
-3.11224e-07
3.12741e-07
-9.71649e-07
0.00111303
7.18142e-09
1.54281e-07
0.000260797
5.3955e-09
3.08082e-09
1.04188e-06
-8.47729e-07
-1.03933e-06
8.48104e-07
0.00110984
5.80621e-08
-1.78601e-08
5.72322e-10
0.000245621
4.27204e-08
-4.46758e-09
-4.7051e-09
0.000204815
2.10612e-07
1.45792e-09
0.000262759
6.6187e-09
-1.31113e-06
-2.68779e-09
9.7534e-07
-3.16667e-07
-9.74392e-07
3.09873e-07
1.3161e-06
-3.12628e-07
3.09563e-07
0.00111209
3.15671e-09
1.03927e-06
-8.44974e-07
-1.03646e-06
8.45362e-07
0.00110982
-1.75759e-08
7.16311e-09
1.54285e-07
0.000260727
5.87765e-08
0.000262922
-0.000262772
-2.0914e-07
-1.16659e-09
6.58804e-09
0.00111188
-2.78581e-09
-1.30558e-06
3.0382e-07
-3.0688e-07
-9.71572e-07
3.0702e-07
-3.138e-07
9.72493e-07
0.00110982
3.11509e-09
-1.03643e-06
8.50928e-07
-8.50491e-07
1.03922e-06
3.76409e-08
0.000260877
-7.9553e-09
-0.000260776
-1.49492e-07
0.000245669
-0.000245631
1.9816e-08
2.15532e-10
0.000204859
5.71286e-09
6.11928e-10
-0.000204828
-5.79019e-08
1.76737e-09
2.14217e-09
2.10568e-07
0.000262798
6.20739e-09
-3.09681e-09
1.28154e-06
-3.06923e-07
3.04084e-07
9.7264e-07
-3.13841e-07
-9.7151e-07
3.07184e-07
0.00111278
-4.2745e-08
4.57707e-09
1.56742e-07
0.000260844
3.47756e-09
3.11448e-09
1.04191e-06
-8.50457e-07
-1.0393e-06
8.50903e-07
0.00110988
2.33057e-10
6.92159e-10
-1.99005e-08
0.000245669
-4.66219e-09
0.000204885
-5.79613e-08
2.07986e-07
1.44237e-09
0.000262772
6.64309e-09
-1.30557e-06
-2.74918e-09
9.72515e-07
-3.13787e-07
-9.71532e-07
3.07009e-07
1.31053e-06
-3.06865e-07
3.03824e-07
0.00111188
3.12305e-09
1.03925e-06
-8.50479e-07
-1.0364e-06
8.50933e-07
0.00110982
-4.05175e-08
-1.77274e-08
4.70002e-09
1.5431e-07
0.000260776
-1.99447e-08
4.79052e-10
0.000245631
-4.4847e-09
-4.59025e-09
0.000204828
0.00027257
-0.000270496
2.55547e-07
2.62982e-07
0.000295751
8.80673e-09
-0.000295713
-4.17915e-08
1.1176e-08
0.000295854
8.90763e-09
-0.000295816
-4.18242e-08
0.000102266
-5.72145e-09
-0.000102249
1.50317e-08
0.000102238
1.27089e-06
0.000270496
-2.5048e-07
-2.57958e-07
-8.77759e-09
4.39249e-08
0.000295713
-1.2856e-08
1.50964e-08
-8.6991e-09
4.40236e-08
0.000295816
4.48251e-09
0.000102248
6.14483e-08
0.000262943
-0.000262791
-2.14325e-07
-6.84092e-10
6.22922e-09
0.00111296
-3.00807e-09
-1.27106e-06
3.01238e-07
-3.04153e-07
-9.71634e-07
3.10024e-07
-3.16668e-07
9.72805e-07
0.00110972
3.04101e-09
-1.03378e-06
8.45355e-07
-8.45027e-07
1.03641e-06
3.7702e-08
0.000260895
-7.88688e-09
-0.000260791
-1.52044e-07
-1.39827e-10
0.000245662
-0.000245621
-3.33736e-11
1.77042e-08
0.000204863
5.56901e-10
-0.000204831
0.000245701
-0.000245658
2.19365e-10
1.77057e-08
0.000204903
5.72021e-09
5.97954e-10
-0.000204872
1.39717e-09
-5.80623e-08
2.13185e-07
1.92918e-09
0.000262755
6.22258e-09
-3.09669e-09
1.27598e-06
-3.04016e-07
3.01222e-07
9.72466e-07
-3.16524e-07
-9.71293e-07
3.09941e-07
0.00111243
3.3924e-09
3.14129e-09
1.03902e-06
-8.44878e-07
-1.03356e-06
8.48065e-07
0.00110959
-4.05188e-08
4.71254e-09
1.54299e-07
0.000260784
-6.0678e-08
2.13243e-07
8.76196e-10
0.000262791
6.26226e-09
-1.27105e-06
-3.02476e-09
9.72833e-07
-3.16652e-07
-9.71596e-07
3.10029e-07
1.27607e-06
-3.04133e-07
3.01244e-07
0.00111296
3.082e-09
1.03644e-06
-8.45009e-07
-1.03374e-06
8.45368e-07
0.00110973
-4.05373e-08
-1.76914e-08
4.66794e-09
1.56804e-07
0.000260792
1.36801e-10
7.2413e-10
-1.78973e-08
0.000245621
-4.60056e-09
0.000204831
4.30274e-10
-1.78994e-08
0.000245658
-4.47485e-09
-4.56699e-09
0.000204871
0.000102265
-0.000102248
0.000102269
-0.000102252
0.00027051
-2.5286e-07
-2.58214e-07
-1.28405e-08
-8.77639e-09
4.40717e-08
0.000295811
-1.28546e-08
-9.26687e-09
4.16409e-08
0.000295755
0.000102248
0.000102251
4.42187e-09
1.49878e-08
-6.84598e-09
-6.88997e-09
0.000227994
1.46908e-08
1.69483e-08
-8.45413e-05
-6.47369e-09
-5.96332e-09
8.45538e-05
-8.45294e-05
-6.44286e-09
-6.03198e-09
8.45419e-05
5.9171e-09
5.91759e-09
-1.41669e-08
-1.65409e-08
0.000228011
2.94683e-08
-2.34194e-08
0.000236499
5.32875e-08
-0.000193335
-2.29045e-08
0.000193361
4.40005e-08
-8.58643e-09
-1.27918e-08
1.76047e-08
-0.000264951
2.70953e-08
0.000265006
-8.67925e-08
-3.72474e-08
8.61399e-08
4.2217e-08
0.000236544
-5.45285e-08
2.94425e-08
-2.14179e-08
0.000236437
5.35947e-08
-0.000193289
-2.08854e-08
0.000193313
4.15548e-08
-9.08999e-09
-1.2796e-08
1.75625e-08
-0.000264852
2.72256e-08
0.000264915
-9.19059e-08
-3.7345e-08
9.11685e-08
4.21968e-08
0.000236482
-5.47751e-08
-1.3488e-08
-5.73612e-09
0.000102272
-1.10856e-08
-5.69429e-09
0.000102271
-0.000227994
6.44434e-09
8.44775e-09
-1.1773e-08
-1.89335e-08
0.00022801
6.89522e-09
8.45452e-05
6.01251e-09
6.85832e-09
8.4527e-05
5.81499e-09
1.71758e-08
1.69136e-08
-4.17908e-09
8.45558e-05
-7.64607e-09
8.45431e-05
-0.000236497
2.05888e-08
-2.45177e-08
-5.21621e-08
0.000236541
2.38958e-08
0.000193336
-3.22228e-08
0.000264949
8.8763e-08
4.48969e-08
9.2677e-09
-3.6651e-08
-1.59826e-08
0.00029584
5.35647e-08
0.000193361
-8.39073e-08
-3.45727e-08
0.000265006
-0.000236437
2.54614e-08
-3.24909e-08
-5.73386e-08
0.000236483
2.12743e-08
0.000193285
-2.91828e-08
0.000264859
8.60335e-08
4.48171e-08
1.16592e-08
-4.44734e-08
-1.85966e-08
0.000295802
5.35408e-08
0.000193314
-9.76556e-08
-4.26694e-08
0.000264923
-0.0001507
7.75544e-10
-1.74592e-08
-4.04117e-12
0.000150717
1.04685e-09
0.000180567
1.58798e-11
-1.94674e-08
0.000238935
5.46653e-10
5.77975e-08
1.978e-08
1.53642e-10
6.92774e-11
-5.61366e-08
0.000245668
6.42599e-10
1.78763e-11
0.000180588
1.56541e-09
-5.97821e-08
0.000238976
-8.24353e-05
-1.54915e-08
8.24507e-05
-1.92872e-08
0.000280223
5.33676e-08
5.55954e-10
-3.99041e-08
0.000204874
-5.43394e-08
0.000280264
-0.000150776
7.6003e-10
-1.76228e-08
5.25733e-11
0.000150793
1.03567e-09
0.000180604
-1.73741e-08
0.000239025
5.25e-10
5.79322e-08
1.97958e-08
2.0397e-10
-5.61507e-08
0.000245708
8.50758e-10
0.000180625
1.65727e-09
-5.99369e-08
0.000239066
-8.24839e-05
-1.56678e-08
8.24996e-05
-1.70857e-08
0.000280338
5.35732e-08
4.89661e-10
5.76966e-09
-3.76416e-08
0.000204923
-5.4422e-08
0.000280379
-1.11195e-08
0.000102278
-0.000228003
6.46445e-09
6.45208e-09
-1.65312e-08
-1.43237e-08
0.000228021
6.89269e-09
8.4531e-05
6.00091e-09
6.9396e-09
8.45435e-05
5.89852e-09
1.6955e-08
1.4627e-08
-5.9705e-09
8.45434e-05
-5.92729e-09
8.45559e-05
-2.71963e-08
-0.000236441
2.28289e-08
-5.23142e-08
0.000236481
2.35256e-08
0.000193286
0.000264845
-2.94516e-08
4.22347e-08
8.87823e-08
-4.17605e-08
8.93727e-09
-1.61279e-08
0.000295787
-3.72597e-08
-8.94245e-08
0.000264903
5.09922e-08
0.000193312
-0.000236512
2.10222e-08
-2.98563e-08
-5.71415e-08
0.000236564
2.16984e-08
0.000193342
-3.19334e-08
0.000264999
9.13104e-08
4.21384e-08
1.2071e-08
-3.92385e-08
1.32657e-08
-1.5892e-08
0.000295894
5.58545e-08
0.000193369
-9.20187e-08
-3.73345e-08
0.000265059
-5.76289e-09
0.000102281
-1.00534e-09
1.94475e-08
0.000150696
6.75651e-10
-1.77907e-08
2.87346e-10
5.80129e-08
-0.000180564
-7.77718e-10
0.000180583
-0.000238922
1.96276e-08
1.59099e-09
0.000238961
-5.98151e-08
5.9637e-10
5.77517e-08
2.06042e-10
0.000150714
1.92172e-08
8.24346e-05
-0.000280213
1.78001e-08
0.000280252
-5.43331e-08
-4.7271e-09
4.27372e-08
5.33566e-08
8.24526e-05
-0.000150773
-1.75769e-08
7.7729e-10
-2.29197e-11
0.00015079
-1.74645e-08
0.000239022
4.86506e-10
6.05821e-08
1.00861e-09
0.000180601
2.03518e-11
4.16886e-10
1.77206e-08
-4.08092e-11
-6.14643e-08
0.000245703
7.72523e-10
1.49709e-09
-6.24245e-08
0.000239065
2.52068e-11
0.00018062
-8.24837e-05
-1.57557e-08
8.24995e-05
-1.7022e-08
0.000280345
5.35535e-08
6.08691e-10
-3.75812e-08
0.000204905
-5.44871e-08
0.000280386
-0.000150695
7.41997e-10
-1.96224e-08
2.17018e-10
0.000150714
1.01344e-09
0.000180564
-1.95238e-08
0.000238923
5.93106e-10
5.78067e-08
1.77095e-08
3.8298e-10
-5.88681e-08
0.000245662
6.66597e-10
0.000180582
1.60481e-09
-5.98179e-08
0.000238962
-8.24339e-05
-1.77887e-08
8.24519e-05
-1.93371e-08
0.000280213
5.34737e-08
5.81579e-10
5.70256e-09
-3.99473e-08
0.000204849
-5.43121e-08
0.000280252
-1.01035e-09
1.74139e-08
0.000150701
8.29235e-10
-1.98609e-08
2.23241e-10
5.78922e-08
-0.000180564
-8.02879e-10
0.000180585
-0.000238929
1.75991e-08
1.65098e-09
0.000238972
-6.25137e-08
4.9083e-10
6.04427e-08
3.00471e-11
0.000150718
1.70815e-08
8.24416e-05
-0.000280223
1.56758e-08
0.000280266
-5.69429e-08
-4.55355e-09
-4.42918e-09
4.05029e-08
5.60452e-08
8.24573e-05
-0.000150777
-1.75609e-08
7.49737e-10
2.41616e-11
0.000150794
-1.74359e-08
0.00023903
4.56115e-10
6.05241e-08
1.05374e-09
0.000180601
-2.7528e-12
2.04918e-10
1.9782e-08
-1.38004e-11
-5.87624e-08
0.000245708
8.09571e-10
1.60286e-09
-6.2438e-08
0.000239073
-5.68832e-12
0.000180621
-8.24881e-05
-1.56805e-08
8.25038e-05
-1.70366e-08
0.000280358
5.60203e-08
5.30105e-10
-3.98998e-08
0.000204918
-5.6988e-08
0.000280401
-0.000150701
7.82531e-10
-1.76066e-08
4.41914e-11
0.000150718
9.97403e-10
0.000180564
-1.74667e-08
0.000238929
4.64615e-10
6.04929e-08
1.97896e-08
4.39432e-10
-5.8759e-08
0.000245669
8.17321e-10
0.000180584
1.67817e-09
-6.25229e-08
0.000238973
-8.24409e-05
-1.5656e-08
8.24566e-05
-1.72167e-08
0.000280223
5.61223e-08
5.55146e-10
5.70318e-09
-3.76744e-08
0.000204859
-5.69664e-08
0.000280267
-6.83918e-09
-6.88356e-09
0.000227986
1.4688e-08
1.68281e-08
-8.45234e-05
-6.47123e-09
-5.93139e-09
8.45358e-05
-8.45424e-05
-6.45391e-09
-5.95976e-09
8.45548e-05
5.93628e-09
5.90255e-09
-1.42764e-08
-1.64872e-08
0.000228004
-2.34143e-08
2.93998e-08
0.00023642
5.57778e-08
-0.000193277
-2.29052e-08
0.000193302
-8.57894e-09
4.38667e-08
1.74518e-08
-0.000264808
2.71845e-08
0.000264871
-4.00159e-08
-9.19582e-08
4.47779e-08
9.1273e-08
0.000236467
-5.71291e-08
2.9318e-08
-2.34798e-08
0.000236498
5.09967e-08
-0.000193337
-2.28773e-08
0.000193363
4.39553e-08
-8.5191e-09
-1.28116e-08
1.49783e-08
-0.00026496
2.72326e-08
0.000265015
-3.47256e-08
-8.93593e-08
3.94321e-08
8.86593e-08
0.000236538
-5.2199e-08
4.42888e-09
-1.34301e-08
0.000102257
-0.000227986
6.40745e-09
6.37295e-09
-1.41844e-08
-1.64011e-08
0.000228004
7.02979e-09
8.45226e-05
6.13219e-09
7.08575e-09
8.45416e-05
6.08269e-09
1.49244e-08
1.70587e-08
-5.89265e-09
8.45349e-05
-5.94063e-09
8.45539e-05
-2.71393e-08
-0.00023642
2.28476e-08
-5.71115e-08
0.000236467
2.35889e-08
0.000193276
0.000264808
-2.94992e-08
4.47882e-08
9.12536e-08
-4.17761e-08
8.75615e-09
-1.84781e-08
0.000295752
-3.99561e-08
-9.19452e-08
0.000264871
5.58569e-08
0.000193302
-0.000236498
2.28241e-08
-2.71845e-08
-5.21879e-08
0.000236538
2.36548e-08
0.000193337
-2.94247e-08
0.000264961
8.8653e-08
3.94377e-08
8.8734e-09
-4.18232e-08
1.11738e-08
-1.60809e-08
0.000295854
5.10758e-08
0.000193363
-8.935e-08
-3.46928e-08
0.000265016
-5.74322e-09
0.000102265
1.74456e-08
-8.59741e-10
0.000150701
8.20996e-10
2.381e-10
-1.78391e-08
-1.33001e-11
5.80386e-08
-0.000238925
1.75915e-08
1.64306e-09
0.000238968
-6.24714e-08
-0.000180564
-7.48596e-10
-8.04377e-12
0.000180582
4.98374e-10
6.04874e-08
-3.14536e-12
3.56162e-11
0.000150718
1.70827e-08
8.24415e-05
-0.00028022
1.56775e-08
0.000280264
-5.70009e-08
-4.61146e-09
4.05091e-08
5.60199e-08
8.24573e-05
1.74689e-08
-1.01963e-09
0.000150776
8.03607e-10
4.62845e-10
-1.78476e-08
6.06504e-08
-0.000239019
1.75928e-08
1.58749e-09
0.000239063
-6.24769e-08
-0.0001806
-7.5087e-10
0.000180619
5.09865e-10
6.05292e-08
2.87457e-11
0.000150793
1.70703e-08
8.24871e-05
-0.000280339
1.57029e-08
0.00028038
-5.45066e-08
-4.57842e-09
-4.42712e-09
4.05209e-08
5.35157e-08
8.25028e-05
-0.0001507
-1.75861e-08
5.9094e-10
3.39321e-11
0.000150717
-1.75205e-08
0.000238926
4.83851e-10
6.05383e-08
9.98933e-10
0.000180563
8.07198e-13
4.13773e-10
1.77146e-08
1.22164e-11
-5.88679e-08
0.000245662
7.98842e-10
1.64107e-09
-6.24827e-08
0.000238969
-4.46975e-12
0.000180582
-8.24409e-05
-1.56666e-08
8.24566e-05
-1.7206e-08
0.000280221
5.61356e-08
5.55555e-10
-3.76948e-08
0.000204863
-5.69845e-08
0.000280264
-0.000150776
-1.75992e-08
7.71125e-10
2.54009e-11
0.000150792
-1.75235e-08
0.000239019
4.86435e-10
6.05639e-08
9.7925e-10
0.0001806
1.92908e-10
1.77172e-08
-6.14607e-08
0.000245702
7.78505e-10
1.58613e-09
-6.24865e-08
0.000239063
0.000180618
-8.24864e-05
-1.56941e-08
8.25021e-05
-1.71932e-08
0.00028034
5.36218e-08
5.99964e-10
5.73495e-09
-3.77067e-08
0.000204903
-5.44985e-08
0.000280381
-0.000227994
6.39974e-09
6.3513e-09
-1.40939e-08
-1.64736e-08
0.000228011
7.05777e-09
8.45406e-05
6.11215e-09
7.10313e-09
8.45287e-05
6.10619e-09
1.49087e-08
1.7161e-08
-5.87624e-09
8.45529e-05
-5.96722e-09
8.4541e-05
-0.000236499
-2.70623e-08
2.2822e-08
-5.45185e-08
0.000236544
2.36164e-08
0.000193335
-2.95697e-08
0.000264951
4.22015e-08
8.615e-08
-4.18685e-08
8.77342e-09
1.12339e-08
-1.86024e-08
0.000295852
5.33536e-08
-3.72603e-08
-8.67709e-08
0.000265006
0.000193361
-0.000236437
-2.71866e-08
2.07917e-08
-5.47609e-08
0.000236482
2.16143e-08
0.000193288
-2.95333e-08
0.000264852
4.21971e-08
9.11665e-08
-3.94312e-08
9.40069e-09
1.12013e-08
-1.86006e-08
0.000295792
5.3664e-08
-3.732e-08
-9.18809e-08
0.000264915
0.000193313
0.000102265
0.000102268
-3.04921e-09
-2.97279e-09
0.00111527
1.58752e-11
0.00112019
2.70164e-11
-5.98857e-10
0.00112064
-1.8229e-10
0.00112772
-2.93279e-09
-2.98468e-09
0.00111548
-5.35929e-11
0.00112027
-4.3009e-11
0.00112068
0.00112776
-3.15565e-09
2.06953e-09
0.00111564
5.96419e-09
7.31141e-10
0.00112055
3.37554e-11
3.51006e-09
0.00112097
1.62264e-10
1.75735e-09
0.00112831
-2.89629e-09
-3.0095e-09
0.00111566
-6.53646e-11
0.00112059
-2.36098e-11
7.51244e-10
0.00112105
7.5868e-10
0.00112833
-3.01229e-09
-2.95336e-09
0.00111527
6.16208e-11
0.00112019
6.01272e-11
5.01801e-10
0.00112064
2.80323e-11
0.00112772
-2.91357e-09
-2.9615e-09
0.00111548
5.28944e-12
0.00112027
3.57616e-11
0.00112068
0.00112776
3.50958e-09
-2.34027e-07
0.000270765
-1.49658e-08
2.13218e-07
3.7495e-10
-1.9433e-11
-0.000269781
-4.45781e-10
-4.00382e-09
0.000270416
-0.000263135
-2.37728e-07
4.66622e-10
0.000263308
1.21661e-09
-1.23621e-09
1.05983e-08
0.000271553
-1.53451e-08
-2.2715e-07
0.000271911
-0.000265723
-2.29669e-07
0.000265888
1.54326e-07
4.67842e-09
-0.000270897
-1.24162e-08
0.000271035
0.000272652
1.41779e-07
1.41956e-07
0.000255505
-2.52887e-07
-2.58245e-07
-0.000268318
1.4302e-07
0.00026865
-0.00026876
1.43283e-07
0.000269089
0.000255682
-0.000255513
-1.40274e-07
-1.46105e-07
0.00025569
2.5559e-07
2.63029e-07
0.000272591
-1.41754e-07
0.000268323
-1.3928e-07
0.000268768
0.000268661
0.000269094
-0.000270776
2.37764e-07
-1.18112e-09
2.58284e-09
0.000271579
2.34055e-07
0.000263144
1.37234e-09
5.11695e-10
0.000269795
5.01058e-09
-6.66455e-10
-2.11737e-07
4.16426e-11
0.000262925
-4.16547e-09
5.09405e-10
0.000263321
-1.90239e-09
0.000270435
9.73945e-09
-0.000271912
2.29582e-07
0.000272647
2.2981e-07
0.000265723
0.000270887
1.25689e-08
-1.46738e-07
-7.83877e-09
0.000260883
0.000271019
0.000265891
-0.000270826
2.3535e-07
-3.91e-10
-2.17157e-10
0.000271636
2.31487e-07
0.000263216
1.32065e-09
-2.81493e-10
0.000269824
-6.23689e-10
-2.09161e-07
0.000262955
-1.44523e-09
5.80854e-10
0.00026339
0.000270463
-0.000271955
2.29704e-07
9.59843e-09
0.000272694
2.27353e-07
0.000265784
1.26829e-08
0.000270903
-7.94595e-09
-1.49508e-07
0.0002609
0.000265952
0.000271036
-1.43315e-07
-0.000255526
-1.43198e-07
0.000255703
2.58201e-07
2.63046e-07
0.000272619
0.000268748
-1.41968e-07
-1.41713e-07
0.000268378
0.000269086
0.00026871
2.3685e-10
-2.34043e-07
0.000270763
-4.20449e-09
2.10628e-07
8.97543e-10
-0.000269795
-9.53037e-10
0.00027042
-0.000263121
-2.37777e-07
4.62246e-10
0.000263298
1.34503e-09
2.5486e-09
0.000271561
-2.27183e-07
0.000271884
-1.53465e-08
-0.000265695
-2.29509e-07
0.00026586
7.13288e-09
1.54331e-07
-1.23402e-08
-0.000270839
0.000270972
0.00027262
-0.000270821
2.35121e-07
-4.15212e-09
1.59749e-08
0.000271616
2.28897e-07
0.000263216
-1.2416e-09
-1.35402e-09
0.000269808
7.26984e-09
3.34617e-10
-2.1435e-07
-4.43549e-10
0.000262941
-1.76413e-08
3.016e-09
0.000263386
-4.42816e-09
0.000270442
1.49075e-08
-0.000271974
2.29817e-07
0.000272721
2.24435e-07
0.000265793
0.000270927
1.54989e-08
-1.54605e-07
-1.04075e-08
0.000260906
0.000271058
0.000265961
-0.000270757
2.1897e-10
2.35219e-07
-2.74998e-10
0.000271561
2.68436e-10
0.000269792
2.31434e-07
0.000263124
1.34053e-09
-2.11759e-07
-7.05474e-10
0.000262912
-1.38059e-09
0.000270422
4.76169e-10
0.000263298
-0.000271886
2.29529e-07
1.23425e-08
0.00027262
2.27134e-07
0.000265695
1.52999e-08
0.000270839
-1.03495e-08
-1.49391e-07
0.000260828
0.00026586
0.000270972
5.54084e-10
-2.31463e-07
0.000270767
-1.39861e-09
2.07997e-07
8.7972e-10
-0.000269795
-9.46479e-10
0.000270431
-0.000263142
-2.35204e-07
5.57417e-10
0.000263313
1.31563e-09
-2.54677e-10
0.00027157
-1.26495e-08
-2.27256e-07
0.0002719
-0.000265718
-2.29579e-07
0.000265883
1.54329e-07
4.66131e-09
-0.000270881
-9.65053e-09
0.00027101
0.000272633
-0.00027083
2.37667e-07
-2.85142e-09
1.33741e-08
0.000271624
2.34113e-07
0.000263226
-1.20181e-09
-5.17341e-10
0.00026981
6.47323e-09
-3.9546e-10
-2.11745e-07
-3.28221e-10
0.000262952
-1.49394e-08
3.02913e-09
0.000263398
-3.78379e-09
0.00027045
-0.000271988
1.23842e-08
2.32249e-07
0.00027273
2.29703e-07
0.000265817
1.53677e-08
0.000270967
-1.51904e-07
-7.80151e-09
0.000260948
0.000271097
0.000265987
-0.000270767
2.16782e-10
2.35241e-07
-2.71141e-10
0.000271571
2.3662e-10
0.000269795
2.31417e-07
0.000263142
1.32893e-09
-2.09153e-07
-6.46754e-10
0.000262923
-1.38746e-09
0.000270433
5.46874e-10
0.000263314
-0.0002719
2.296e-07
9.63715e-09
0.000272633
2.2721e-07
0.000265718
1.2617e-08
0.000270881
-7.89529e-09
-1.4945e-07
0.000260877
0.000265883
0.000271011
1.39094e-07
1.41993e-07
0.000255495
-2.57985e-07
-2.50512e-07
-0.000268713
1.4325e-07
0.000269043
-0.000268338
1.40574e-07
0.000268673
0.000255669
-1.43252e-07
-0.000255495
-1.40573e-07
0.000255669
2.55549e-07
2.62989e-07
0.00027257
0.000268713
-1.41979e-07
-1.39079e-07
0.000268338
0.000269043
0.000268673
3.00559e-09
-2.34126e-07
0.000270814
-1.49872e-08
2.13271e-07
5.96662e-10
-0.000269811
1.72739e-09
0.000270436
-0.000263207
-2.37692e-07
2.98003e-09
0.000263378
-1.24977e-09
1.33237e-08
0.000271601
-1.26053e-08
-2.29766e-07
0.000271963
-0.000265781
-2.32296e-07
0.000265954
1.56824e-07
4.62091e-09
-0.00027092
-9.63453e-09
0.00027105
0.000272707
-0.000270765
-2.79878e-09
2.37676e-07
1.33185e-08
0.000271556
-2.26956e-10
0.000269781
3.97446e-09
2.34055e-07
0.000263135
1.29735e-09
-2.14343e-07
-1.93231e-10
3.33608e-11
0.000262911
-1.22314e-08
-1.22868e-09
0.000270413
2.97142e-09
0.000263307
-0.000271911
1.24362e-08
2.29628e-07
0.000272654
2.27185e-07
0.000265723
1.53072e-08
0.000270897
-1.49551e-07
-7.89782e-09
0.000260888
0.000271035
0.000265891
-0.000270814
-2.28054e-09
2.37731e-07
1.33276e-08
0.000271602
-2.45714e-09
0.00026981
2.34058e-07
0.000263207
-1.25437e-09
-2.14335e-07
-4.12601e-10
0.000262945
-1.49784e-08
0.000270438
2.97365e-09
0.000263379
-0.000271963
2.32317e-07
9.64002e-09
0.000272707
2.29726e-07
0.000265782
1.2576e-08
0.00027092
-7.84298e-09
-1.52039e-07
0.000260895
0.000265954
0.00027105
-0.000255505
-1.43024e-07
-1.43286e-07
0.000255682
2.57851e-07
2.63232e-07
0.000272575
-1.41753e-07
0.000268318
-1.41934e-07
0.00026876
0.00026865
0.00026909
1.28298e-08
4.36977e-09
0.000102256
-0.000102274
1.28e-08
4.33526e-09
0.000102255
-0.000102272
1.31099e-06
1.27379e-06
0.000270515
-2.50298e-07
-2.5814e-07
-0.000272591
1.49817e-08
-8.9773e-09
4.16539e-08
0.000295809
-0.000295844
1.74694e-08
-8.99836e-09
4.16256e-08
0.000295762
-0.000295799
6.74638e-11
5.78465e-08
-1.9662e-08
7.28167e-10
0.000245632
-0.000245671
4.039e-08
-4.62946e-09
0.000204848
-0.000204879
5.78923e-08
-1.97056e-08
3.70649e-10
0.000245672
-0.00024571
1.37931e-09
2.4524e-09
2.13109e-07
0.000262769
-0.000262928
6.26278e-09
-2.50478e-09
1.31605e-06
-3.09691e-07
3.06686e-07
9.75077e-07
-3.11047e-07
3.0695e-07
-9.74416e-07
-0.00111197
4.5813e-09
1.54317e-07
0.000260786
-0.00026089
2.30024e-09
2.88836e-09
1.04479e-06
-8.53182e-07
-1.04192e-06
8.53727e-07
-0.00110995
1.37754e-09
2.13179e-07
0.000262802
-0.000262957
-2.38678e-09
1.045e-06
-8.5334e-07
-1.04213e-06
8.53791e-07
-0.0011101
6.05506e-08
1.88211e-10
4.12754e-10
-1.76245e-08
0.00024566
-0.000245703
4.0385e-08
-4.75421e-09
0.000204874
-0.000204905
1.74677e-09
1.88959e-09
2.13151e-07
0.000262787
-0.000262944
9.73627e-10
-2.54766e-09
1.27892e-06
-3.06912e-07
3.04255e-07
9.75539e-07
-3.16697e-07
3.10038e-07
-9.77085e-07
-0.00111304
7.06836e-09
1.54274e-07
0.000260797
-0.0002609
3.66965e-12
8.06326e-09
1.04204e-06
-8.47575e-07
-1.04194e-06
8.48284e-07
-0.00110986
5.79847e-08
-1.76177e-08
4.96575e-10
0.000245621
-0.000245661
4.26636e-08
-4.38318e-09
-4.69003e-09
0.000204815
-0.000204848
2.1066e-07
1.16475e-09
0.000262759
-0.000262911
1.15358e-08
-1.31099e-06
-2.56889e-09
9.75305e-07
-3.16631e-07
-9.74415e-07
3.09894e-07
1.31624e-06
-3.12523e-07
3.09666e-07
-0.00111209
8.11766e-09
1.0393e-06
-8.47743e-07
-1.03923e-06
8.45411e-07
-0.00110982
-1.74398e-08
7.08918e-09
1.5425e-07
0.000260727
-0.000260828
1.49763e-08
0.000102238
-0.000102258
1.27092e-06
0.000270496
-2.53015e-07
-2.57914e-07
-0.000272567
-8.48718e-09
4.39137e-08
0.000295713
-0.000295751
-1.28095e-08
1.49531e-08
-1.1199e-08
4.40527e-08
0.000295816
-0.000295851
4.37215e-09
0.000102249
-0.000102266
1.11631e-09
-6.04493e-08
2.10535e-07
1.87964e-09
0.000262757
-0.000262911
6.11555e-09
-2.33227e-09
1.27593e-06
-3.04029e-07
3.01184e-07
9.72305e-07
-3.16549e-07
-9.71455e-07
3.09853e-07
-0.00111242
-1.55194e-09
2.67414e-09
1.03628e-06
-8.44802e-07
-1.03349e-06
8.45322e-07
-0.00110959
-4.04195e-08
4.60749e-09
1.56721e-07
0.000260781
-0.000260887
-5.79702e-08
2.0797e-07
6.18258e-10
0.000262791
-0.000262941
2.83937e-09
1.03645e-06
-8.44901e-07
-1.03364e-06
8.45448e-07
-0.00110972
2.36337e-11
4.05324e-10
-1.96856e-08
0.000245621
-0.000245662
-4.63741e-09
0.000204831
-0.000204863
4.21519e-10
-1.75997e-08
0.000245658
-0.000245699
-1.12079e-08
-5.78066e-09
-1.1233e-08
-5.73669e-09
-0.000227992
6.54718e-09
6.36012e-09
-1.65969e-08
-1.66951e-08
6.9103e-09
8.45397e-05
5.85267e-09
-8.45524e-05
7.0843e-09
8.45274e-05
5.83653e-09
-8.45403e-05
1.70973e-08
1.71723e-08
-0.000228012
-6.17097e-09
-6.22769e-09
-0.000236496
2.09794e-08
-2.72982e-08
-5.7336e-08
2.14533e-08
0.000193335
-0.00019336
-2.93556e-08
0.000264948
8.87624e-08
3.95091e-08
-0.000265005
9.63435e-09
-3.94263e-08
-1.61934e-08
5.59773e-08
-0.000236543
-9.19983e-08
-3.46631e-08
-0.000236435
2.09938e-08
-2.7278e-08
-5.74837e-08
2.1413e-08
0.000193285
-0.00019331
-2.95114e-08
0.000264854
9.11903e-08
4.48934e-08
-0.000264919
9.662e-09
-3.94698e-08
-1.8793e-08
5.59213e-08
-0.000236482
-9.1961e-08
-4.00653e-08
-0.0001507
6.63272e-10
-1.97316e-08
2.77236e-10
1.13091e-09
0.000180568
-3.47498e-11
-0.000180589
-1.92988e-08
0.000238934
5.30865e-10
5.78094e-08
-0.000238972
1.99531e-08
1.55848e-10
-1.46134e-11
-5.87806e-08
7.73013e-10
-0.000150719
-5.00468e-11
1.60636e-09
-5.97598e-08
-8.24358e-05
-1.78834e-08
-1.91526e-08
0.000280222
5.35167e-08
-0.000280261
9.51376e-10
-4.006e-08
-8.24542e-05
-5.68111e-08
-0.000150776
7.9446e-10
-1.76925e-08
1.02675e-09
0.000180605
-0.000180626
-1.7331e-08
0.000239024
6.05382e-08
-0.000239067
1.99634e-08
1.51875e-10
-5.87792e-08
-0.000150793
-6.24829e-08
-0.000150773
-1.77728e-08
5.05265e-10
1.18767e-10
-1.7298e-08
0.000239022
5.16977e-10
6.04669e-08
-0.000239065
1.08434e-09
0.000180601
3.08441e-12
-0.00018062
6.67434e-10
1.79583e-08
-7.95748e-11
-6.15628e-08
9.02451e-10
-0.00015079
1.6118e-09
-6.25408e-08
-5.23976e-12
-8.24841e-05
-1.57714e-08
-1.70331e-08
0.000280345
5.35771e-08
-0.000280386
5.23763e-10
-3.75644e-08
-8.25002e-05
-5.4474e-08
-0.000150696
6.84996e-10
-1.97656e-08
2.62241e-10
1.07128e-09
0.000180565
-0.000180583
-1.93292e-08
0.000238922
5.39376e-10
5.78084e-08
-0.000238961
1.79143e-08
1.2124e-10
-5.89274e-08
7.24716e-10
-0.000150715
1.5579e-09
-5.9806e-08
-8.24349e-05
-1.78915e-08
-1.91379e-08
0.000280213
5.34648e-08
-0.000280251
5.94882e-10
5.7238e-09
-3.99232e-08
-8.24533e-05
-5.43038e-08
-1.35024e-08
-0.000227986
6.44157e-09
6.42151e-09
-1.42205e-08
-1.64449e-08
6.96861e-09
8.45234e-05
5.85655e-09
-8.45363e-05
7.01425e-09
8.45424e-05
5.80919e-09
-8.45552e-05
1.48824e-08
1.69995e-08
-0.000228004
-6.08737e-09
-6.12354e-09
-2.71513e-08
-0.00023642
2.29894e-08
-5.72146e-08
2.34099e-08
0.000193277
-0.000193303
0.000264807
-2.95063e-08
4.49182e-08
9.12021e-08
-0.00026487
-4.18027e-08
8.9779e-09
-1.85975e-08
-3.99699e-08
-9.19525e-08
5.57311e-08
-0.000236467
-0.000236498
2.30046e-08
-2.7192e-08
-5.23443e-08
2.36859e-08
0.000193338
-0.000193367
-3.19953e-08
0.00026496
8.86271e-08
3.95783e-08
-0.000265012
9.01348e-09
-4.18222e-08
1.12293e-08
-1.61824e-08
5.0894e-08
-0.00023654
-8.93636e-08
-3.4639e-08
-5.77243e-09
-0.000150698
-1.97568e-08
6.6193e-10
5.62633e-11
-1.93337e-08
0.000238925
4.66849e-10
6.0378e-08
-0.000238966
1.07118e-09
0.000180562
-2.22159e-11
-0.000180583
4.12649e-10
1.99793e-08
-2.61518e-11
-6.13784e-08
9.2045e-10
-0.000150718
1.57976e-09
-6.23494e-08
-2.94712e-11
-8.24417e-05
-1.57488e-08
-1.69963e-08
0.00028022
5.35545e-08
-0.000280261
5.39958e-10
-3.77182e-08
-8.24578e-05
-5.44454e-08
-0.000150773
-1.9729e-08
7.65822e-10
-1.93758e-08
0.00023902
6.04023e-08
-0.000239061
1.03323e-09
0.0001806
-0.000180619
1.00061e-10
1.78736e-08
-5.88874e-08
-0.000150792
-6.23648e-08
-2.9161e-09
-8.19502e-09
-0.00111565
-5.35804e-09
-1.8643e-09
-0.00112054
-3.02826e-10
-5.26587e-09
-0.00112096
-4.71488e-09
-5.00324e-09
-0.00112829
-4.48286e-10
-0.00112059
-2.95661e-09
-0.00112833
2.59667e-09
-3.24088e-09
-0.00111528
-5.17868e-10
-0.00112018
-2.79525e-10
-9.92559e-09
-0.00112063
-9.79313e-09
-0.00112771
-2.34859e-10
-0.00112068
-0.00112776
-0.000255512
-1.43143e-07
-1.40934e-07
2.55414e-07
2.63234e-07
-1.41675e-07
0.000268323
-0.000268653
-1.39383e-07
0.000268765
-0.000269099
-0.000255681
-0.000270776
2.35223e-07
-1.47641e-09
2.5661e-09
2.31382e-07
0.000263148
1.44128e-09
-0.000263321
1.25255e-09
0.000269795
4.69342e-09
-0.000270441
-4.02143e-10
-2.14387e-07
-1.34329e-10
-4.16393e-09
-0.000271581
6.30104e-10
-2.16847e-09
9.66603e-09
-0.000271906
2.26974e-07
2.24699e-07
0.000265725
-0.00026589
0.000270889
1.27074e-08
-0.000271019
-1.4943e-07
-8.01121e-09
-0.000272647
-0.000270828
2.35301e-07
1.37922e-10
2.31441e-07
0.000263218
-0.000263389
2.96102e-11
0.000269824
-0.00027046
-8.89333e-10
-2.14391e-07
-0.000271634
-0.000270824
2.37764e-07
-3.92173e-09
1.87412e-08
2.34059e-07
0.000263213
-1.20508e-09
-0.000263383
-1.01012e-09
0.000269808
6.94245e-09
-0.000270448
7.81242e-11
-2.11817e-07
-4.87999e-10
-1.74766e-08
-0.000271615
2.97202e-09
-4.69518e-09
9.69127e-09
-0.000271969
2.29762e-07
2.27054e-07
0.00026579
-0.000265958
0.000270922
1.52537e-08
-0.000271055
-1.49493e-07
-7.93074e-09
-0.000272721
-0.000270758
4.58057e-10
2.35196e-07
-2.33557e-10
6.41307e-11
0.000269792