/*--------------------------------*- C++ -*----------------------------------*\
| =========                 |                                                 |
| \\      /  F ield         | OpenFOAM: The Open Source CFD Toolbox           |
|  \\    /   O peration     | Version:  v1912                                 |
|   \\  /    A nd           | Website:  www.openfoam.com                      |
|    \\/     M anipulation  |                                                 |
\*---------------------------------------------------------------------------*/
FoamFile
{
    version     2.0;
    format      ascii;
    class       volVectorField;
    location    "60";
    object      U;
}
// * * * * * * * * * * * * * * * * * * * * * * * * * * * * * * * * * * * * * //

dimensions      [0 1 -1 0 0 0 0];


internalField   nonuniform List<vector> 
57566
(
(-3.62317e-06 2.60896e-06 0.0746878)
(3.37964e-07 2.21091e-05 0.103571)
(1.61539e-06 -1.02625e-06 0.105646)
(-3.26104e-07 -1.28004e-06 0.105871)
(-5.74582e-06 1.79293e-05 0.0989082)
(6.2164e-05 6.21884e-05 0.105229)
(4.89836e-06 5.66604e-06 0.0931412)
(5.67271e-06 4.89752e-06 0.0931389)
(2.37961e-06 4.0019e-06 0.0746319)
(4.05419e-06 2.45105e-06 0.0746327)
(5.8149e-05 5.8157e-05 0.105196)
(5.76358e-06 5.58189e-06 0.0930799)
(5.58196e-06 5.80617e-06 0.0930778)
(-1.67306e-07 1.02079e-05 0.0978763)
(4.03685e-07 8.24035e-06 0.0870023)
(1.4369e-07 1.02223e-05 0.0978764)
(-4.21454e-07 8.3169e-06 0.087004)
(-3.11096e-07 2.24095e-05 0.103531)
(1.71725e-06 1.10465e-06 0.105646)
(4.73259e-06 1.9287e-05 0.0988237)
(-2.87921e-07 1.30398e-06 0.105871)
(3.09585e-07 2.24229e-05 0.103531)
(-1.66696e-06 1.08154e-06 0.105646)
(-4.78564e-06 1.93426e-05 0.098824)
(3.16878e-07 1.30016e-06 0.105871)
(-2.46464e-06 4.1035e-06 0.0746343)
(-5.8164e-05 5.81234e-05 0.105196)
(-5.8302e-06 5.65233e-06 0.0930791)
(-5.541e-06 5.72833e-06 0.0930794)
(-3.97213e-06 2.37775e-06 0.0746315)
(-1.08069e-05 -1.01012e-07 0.0979274)
(-7.55505e-06 1.55303e-06 0.0870599)
(-2.21094e-05 -3.38887e-07 0.103572)
(1.08004e-06 -1.66191e-06 0.105646)
(1.29362e-06 2.98819e-07 0.105871)
(-1.78279e-05 5.67666e-06 0.0989091)
(1.02898e-05 -1.39229e-07 0.0978768)
(8.28044e-06 4.1587e-07 0.0870033)
(2.24136e-05 -3.04909e-07 0.103531)
(1.05358e-06 1.59618e-06 0.105646)
(1.929e-05 4.78186e-06 0.0988236)
(1.29447e-06 -3.4355e-07 0.105871)
(1.0326e-05 1.94952e-07 0.0978768)
(8.20324e-06 -4.30207e-07 0.0870016)
(2.24128e-05 3.36049e-07 0.103531)
(1.0806e-06 -1.66805e-06 0.105646)
(1.29668e-06 2.94374e-07 0.105871)
(1.92864e-05 -4.78926e-06 0.0988224)
(2.20916e-05 -3.25347e-07 0.103572)
(-1.06466e-06 -1.65909e-06 0.105646)
(-1.30169e-06 2.9521e-07 0.105871)
(1.79317e-05 5.74359e-06 0.0989085)
(1.07506e-05 -8.30658e-08 0.0979287)
(7.58203e-06 1.56259e-06 0.0870588)
(-2.23994e-05 -3.06143e-07 0.103531)
(-1.02012e-06 1.61726e-06 0.105646)
(-1.92491e-05 4.74573e-06 0.098824)
(-1.29894e-06 -3.25141e-07 0.105871)
(-1.02194e-05 -1.47978e-07 0.0978761)
(-8.23388e-06 4.03352e-07 0.087003)
(-2.2408e-05 3.26888e-07 0.103531)
(-1.06924e-06 -1.66646e-06 0.105646)
(-1.3007e-06 2.89398e-07 0.105871)
(-1.9305e-05 -4.81066e-06 0.0988242)
(-1.02654e-05 1.71395e-07 0.097876)
(-8.32831e-06 -4.6762e-07 0.0870033)
(-6.21748e-05 6.22056e-05 0.105229)
(-4.84219e-06 5.64041e-06 0.0931409)
(-5.69337e-06 4.90368e-06 0.0931408)
(-2.68252e-06 3.71625e-06 0.0746868)
(4.00147e-06 -2.42779e-06 0.0746298)
(5.81243e-05 -5.81849e-05 0.105196)
(5.60691e-06 -5.82722e-06 0.0930763)
(5.85741e-06 -5.68302e-06 0.0930804)
(2.49756e-06 -4.12993e-06 0.0746342)
(-3.38345e-07 2.20962e-05 0.103572)
(-1.60999e-06 -1.02979e-06 0.105646)
(3.13922e-07 -1.28227e-06 0.105871)
(5.73988e-06 1.79527e-05 0.0989083)
(8.23365e-08 1.07931e-05 0.0979272)
(-1.58048e-06 7.60612e-06 0.0870589)
(-8.20127e-08 1.07888e-05 0.0979276)
(1.56856e-06 7.5976e-06 0.0870589)
(-3.17949e-07 -2.2411e-05 0.103531)
(1.62076e-06 -1.0309e-06 0.105646)
(-3.2412e-07 -1.29545e-06 0.105871)
(4.80716e-06 -1.93182e-05 0.0988246)
(3.24301e-07 -2.24136e-05 0.10353)
(-1.61471e-06 -1.02721e-06 0.105646)
(3.10734e-07 -1.28685e-06 0.105871)
(-4.7974e-06 -1.93124e-05 0.0988236)
(-1.63907e-07 -1.03387e-05 0.0978768)
(4.53253e-07 -8.30767e-06 0.0870036)
(1.63667e-07 -1.03392e-05 0.0978765)
(-4.5575e-07 -8.31884e-06 0.0870036)
(3.71951e-06 2.68982e-06 0.0746863)
(2.6738e-06 3.71262e-06 0.0746853)
(-5.81597e-05 -5.81745e-05 0.105196)
(-5.67551e-06 -5.88637e-06 0.09308)
(-5.86779e-06 -5.6776e-06 0.0930786)
(-4.13e-06 -2.48525e-06 0.0746336)
(-2.49258e-06 -4.13644e-06 0.0746328)
(3.96707e-06 -2.39252e-06 0.0746301)
(-3.68083e-06 -3.69915e-06 0.0891739)
(1.77769e-06 2.38043e-06 0.071753)
(2.40198e-06 1.77084e-06 0.0717466)
(-2.03852e-06 -2.33247e-06 0.0717051)
(-2.32669e-06 -2.05485e-06 0.071699)
(3.75649e-06 3.73886e-06 0.0892245)
(-1.28706e-05 -6.1852e-06 0.0976893)
(3.78224e-06 2.47943e-06 0.0861844)
(-5.6187e-06 -5.83007e-06 0.09308)
(2.12052e-05 1.13233e-05 0.101798)
(-2.19107e-05 -1.28021e-05 0.101745)
(-4.20291e-06 -2.39272e-06 0.0861355)
(1.29933e-05 5.77799e-06 0.0977483)
(-6.18843e-06 -1.28972e-05 0.0976834)
(2.5192e-06 3.81454e-06 0.0861789)
(-5.81546e-06 -5.61849e-06 0.0930786)
(1.13716e-05 2.12009e-05 0.101796)
(-1.27868e-05 -2.18809e-05 0.101743)
(-2.40145e-06 -4.24596e-06 0.0861315)
(5.83452e-06 1.30025e-05 0.0977421)
(-2.61558e-06 -3.59585e-06 0.0746889)
(-3.70167e-06 -2.67284e-06 0.0746867)
(-3.71982e-06 -3.74397e-06 0.0892253)
(2.36516e-06 2.07142e-06 0.0717059)
(2.04479e-06 2.28728e-06 0.0716971)
(3.70105e-06 3.65921e-06 0.0891733)
(-2.36376e-06 -1.77907e-06 0.0717529)
(-1.768e-06 -2.36986e-06 0.0717474)
(-5.79928e-06 -1.30901e-05 0.097745)
(2.45898e-06 4.25286e-06 0.0861371)
(1.28218e-05 2.19057e-05 0.101747)
(-5.58312e-06 -4.75535e-06 0.0931425)
(6.27891e-06 1.29527e-05 0.0976921)
(-2.4645e-06 -3.77236e-06 0.0861837)
(-1.12981e-05 -2.11516e-05 0.101797)
(-1.2958e-05 -5.82719e-06 0.097746)
(4.19275e-06 2.34115e-06 0.0861296)
(2.18852e-05 1.2742e-05 0.101741)
(-4.91067e-06 -5.67832e-06 0.0931399)
(1.28632e-05 6.08555e-06 0.0976799)
(-3.72992e-06 -2.46298e-06 0.0861807)
(-2.12532e-05 -1.14155e-05 0.101798)
(7.55063e-07 -3.81589e-06 0.0808741)
(-1.97685e-07 3.76727e-06 0.0830228)
(-4.0415e-07 9.67236e-06 0.0961799)
(1.00076e-07 -1.07262e-05 0.097929)
(-9.49948e-07 4.07706e-06 0.080832)
(1.43954e-07 -3.40204e-06 0.0830575)
(-2.20694e-08 -1.03659e-05 0.0962403)
(6.11562e-07 -3.61653e-06 0.0712248)
(-5.0763e-07 7.25487e-06 0.0913798)
(-1.56794e-06 -7.53027e-06 0.0870602)
(-1.38327e-06 3.93552e-06 0.0711618)
(-8.40152e-07 -7.55021e-06 0.0914487)
(-7.48349e-07 -3.8778e-06 0.0808745)
(1.99517e-07 3.7775e-06 0.0830233)
(3.76029e-07 9.72324e-06 0.0961806)
(-8.91394e-08 -1.07324e-05 0.0979288)
(9.45318e-07 4.13214e-06 0.080835)
(-1.37128e-07 -3.40727e-06 0.0830576)
(4.72451e-08 -1.04249e-05 0.0962386)
(-5.70422e-07 -3.68178e-06 0.0712237)
(4.94016e-07 7.31216e-06 0.0913804)
(1.59443e-06 -7.59057e-06 0.087059)
(1.36259e-06 4.01788e-06 0.0711651)
(8.80693e-07 -7.60277e-06 0.0914461)
(2.68732e-06 -3.70198e-06 0.0746865)
(3.77038e-06 -3.77755e-06 0.0892248)
(-2.35803e-06 2.07957e-06 0.0716987)
(-2.09295e-06 2.32158e-06 0.0717041)
(-3.67741e-06 3.6539e-06 0.089174)
(2.39605e-06 -1.76372e-06 0.0717466)
(1.75858e-06 -2.39081e-06 0.0717521)
(5.8154e-06 -1.29834e-05 0.0977428)
(-2.43237e-06 4.27239e-06 0.0861312)
(-1.27978e-05 2.19486e-05 0.101743)
(5.69484e-06 -4.87391e-06 0.0931395)
(1.13575e-05 -2.1186e-05 0.101797)
(-6.19775e-06 1.28719e-05 0.0976833)
(2.47395e-06 -3.72664e-06 0.0861799)
(1.30304e-05 -5.85477e-06 0.0977487)
(-4.25039e-06 2.39297e-06 0.0861356)
(-2.18989e-05 1.27511e-05 0.101745)
(4.74897e-06 -5.59781e-06 0.0931433)
(-1.29057e-05 6.17812e-06 0.0976895)
(3.69237e-06 -2.45387e-06 0.0861848)
(2.11854e-05 -1.13888e-05 0.101799)
(3.57888e-06 -2.62238e-06 0.0746888)
(4.05634e-06 9.42092e-07 0.0808319)
(1.02688e-05 1.66205e-07 0.0978767)
(-3.47625e-06 -1.55732e-07 0.0830562)
(-1.03784e-05 1.93864e-08 0.0962398)
(3.86029e-06 1.63823e-07 0.0830242)
(9.65894e-06 4.21679e-07 0.096179)
(-3.79727e-06 -7.43685e-07 0.0808747)
(3.89023e-06 1.40811e-06 0.0711618)
(-7.56294e-06 8.34872e-07 0.0914485)
(8.20464e-06 -4.10673e-07 0.0870016)
(7.24179e-06 5.30164e-07 0.0913787)
(-3.57142e-06 -6.08719e-07 0.0712268)
(-3.86255e-06 7.71704e-07 0.0808738)
(9.7436e-06 -3.68689e-07 0.0961806)
(3.87888e-06 -1.88903e-07 0.0830246)
(-1.0791e-05 9.35498e-08 0.0979275)
(4.1653e-06 -9.21665e-07 0.0808347)
(-1.04112e-05 -6.14498e-09 0.096239)
(-3.47706e-06 1.39632e-07 0.0830562)
(-3.68828e-06 6.34055e-07 0.0712222)
(7.29868e-06 -4.72397e-07 0.0913807)
(-7.56579e-06 -1.57014e-06 0.0870595)
(4.01783e-06 -1.31622e-06 0.0711636)
(-7.60341e-06 -8.17681e-07 0.0914467)
(-3.78964e-06 -7.39224e-07 0.0808745)
(3.87218e-06 1.91357e-07 0.0830239)
(9.71639e-06 4.20126e-07 0.0961792)
(-1.0773e-05 -8.9132e-08 0.0979275)
(4.08589e-06 9.36399e-07 0.0808316)
(-3.47619e-06 -1.19529e-07 0.0830561)
(-1.03409e-05 1.55304e-08 0.09624)
(-3.56282e-06 -5.98205e-07 0.0712263)
(7.32503e-06 5.33854e-07 0.0913788)
(-7.5503e-06 1.54527e-06 0.08706)
(3.9342e-06 1.41454e-06 0.0711612)
(-7.5198e-06 8.41315e-07 0.0914487)
(-4.14339e-06 9.36062e-07 0.080834)
(-1.02074e-05 1.5303e-07 0.0978759)
(3.40972e-06 -1.68263e-07 0.0830573)
(1.04413e-05 5.05988e-08 0.0962388)
(-3.77795e-06 1.73281e-07 0.083023)
(-9.71396e-06 3.84184e-07 0.0961795)
(3.87075e-06 -7.59445e-07 0.0808737)
(-4.01803e-06 1.35074e-06 0.0711669)
(7.6166e-06 8.39777e-07 0.0914471)
(-8.30125e-06 -4.38518e-07 0.0870034)
(-7.2977e-06 4.79374e-07 0.09138)
(3.68353e-06 -5.87144e-07 0.0712259)
(3.85818e-06 7.53024e-07 0.0808747)
(-9.72355e-06 -3.70638e-07 0.0961801)
(-3.79021e-06 -2.08925e-07 0.0830232)
(1.07287e-05 8.11282e-08 0.0979289)
(-4.14813e-06 -9.40515e-07 0.080835)
(1.04118e-05 -2.7453e-08 0.0962394)
(3.39575e-06 1.30928e-07 0.0830575)
(3.6839e-06 6.00336e-07 0.0712245)
(-7.29143e-06 -4.74338e-07 0.0913801)
(7.52194e-06 -1.58073e-06 0.0870606)
(-4.01377e-06 -1.33152e-06 0.0711653)
(7.58422e-06 -8.44459e-07 0.0914475)
(3.87117e-06 -7.57327e-07 0.0808735)
(-3.801e-06 1.90543e-07 0.0830227)
(-9.77243e-06 3.78534e-07 0.0961797)
(1.07181e-05 -7.53812e-08 0.0979289)
(-4.16357e-06 9.25042e-07 0.0808338)
(3.39721e-06 -1.38989e-07 0.0830571)
(1.04067e-05 4.85128e-08 0.096239)
(3.67319e-06 -5.69664e-07 0.0712254)
(-7.38416e-06 4.60704e-07 0.0913801)
(7.59985e-06 1.56459e-06 0.0870588)
(-4.0664e-06 1.35503e-06 0.0711663)
(7.57852e-06 8.59953e-07 0.0914473)
(3.66438e-06 -3.68323e-06 0.0891735)
(-1.77337e-06 2.36992e-06 0.071746)
(-2.37832e-06 1.7622e-06 0.0717524)
(2.04483e-06 -2.33495e-06 0.0716979)
(2.32619e-06 -2.05877e-06 0.0717045)
(-3.75864e-06 3.76094e-06 0.0892244)
(1.28484e-05 -6.1791e-06 0.0976826)
(-3.7708e-06 2.45476e-06 0.0861794)
(5.55925e-06 -5.77322e-06 0.0930762)
(-2.12037e-05 1.13676e-05 0.101797)
(4.21633e-06 -2.41514e-06 0.0861298)
(2.18934e-05 -1.27707e-05 0.101743)
(-1.29952e-05 5.82119e-06 0.0977425)
(6.1305e-06 -1.28898e-05 0.0976889)
(-2.47142e-06 3.75757e-06 0.0861843)
(5.80455e-06 -5.6325e-06 0.0930803)
(-1.13881e-05 2.12014e-05 0.101798)
(1.27483e-05 -2.18979e-05 0.101745)
(2.38388e-06 -4.24225e-06 0.0861356)
(-5.81573e-06 1.29919e-05 0.0977483)
(2.45769e-06 -4.09967e-06 0.0746345)
(-3.59219e-06 2.59036e-06 0.0746875)
(-3.71045e-06 3.70251e-06 0.0892245)
(2.107e-06 -2.40506e-06 0.0716973)
(2.38969e-06 -2.12678e-06 0.0717039)
(3.7608e-06 -3.78216e-06 0.0891734)
(-1.76036e-06 2.35889e-06 0.0717454)
(-2.37035e-06 1.74472e-06 0.0717518)
(-1.29703e-05 5.7911e-06 0.0977426)
(4.27567e-06 -2.51678e-06 0.0861296)
(2.19053e-05 -1.27628e-05 0.101743)
(-4.8153e-06 5.62131e-06 0.093141)
(-2.11967e-05 1.13785e-05 0.101797)
(1.29242e-05 -6.25856e-06 0.0976827)
(-3.73101e-06 2.41363e-06 0.0861793)
(-5.78256e-06 1.29665e-05 0.0977484)
(2.47582e-06 -4.30507e-06 0.0861354)
(1.27451e-05 -2.19172e-05 0.101745)
(-5.67483e-06 4.87432e-06 0.0931409)
(6.2083e-06 -1.29662e-05 0.0976889)
(-2.44325e-06 3.72001e-06 0.0861841)
(-1.14005e-05 2.11984e-05 0.101798)
(-2.66392e-06 3.70251e-06 0.0746865)
(-9.38757e-07 -4.15696e-06 0.0808343)
(-1.62033e-07 -1.02889e-05 0.0978767)
(-3.47032e-08 1.04254e-05 0.0962386)
(1.2565e-07 3.47614e-06 0.0830561)
(-3.89527e-07 -9.73147e-06 0.0961796)
(-1.96604e-07 -3.87163e-06 0.0830245)
(7.48251e-07 3.877e-06 0.0808736)
(-1.34178e-06 -4.02142e-06 0.0711672)
(-8.54106e-07 7.62028e-06 0.0914472)
(4.28484e-07 -8.29688e-06 0.0870036)
(-4.80377e-07 -7.29633e-06 0.0913802)
(5.90764e-07 3.68256e-06 0.0712263)
(9.32401e-07 -4.16076e-06 0.0808351)
(1.69664e-07 -1.02891e-05 0.0978764)
(3.13926e-08 1.04251e-05 0.0962389)
(-1.25389e-07 3.47727e-06 0.0830563)
(3.84746e-07 -9.73403e-06 0.09618)
(1.97046e-07 -3.8763e-06 0.0830246)
(-7.5347e-07 3.87384e-06 0.0808744)
(1.33352e-06 -4.01542e-06 0.0711655)
(8.39075e-07 7.62324e-06 0.0914463)
(-4.29302e-07 -8.30347e-06 0.0870037)
(4.71139e-07 -7.30027e-06 0.0913804)
(-5.9733e-07 3.68503e-06 0.0712241)
(7.5388e-07 3.8703e-06 0.0808734)
(-3.81158e-07 -9.79162e-06 0.0961798)
(-1.9163e-07 -3.89031e-06 0.0830243)
(8.02216e-08 1.0769e-05 0.0979273)
(-9.212e-07 -4.18273e-06 0.080834)
(-2.88221e-08 1.0394e-05 0.0962388)
(1.26438e-07 3.47642e-06 0.0830559)
(5.85625e-07 3.67322e-06 0.0712257)
(-4.77593e-07 -7.3811e-06 0.0913803)
(-1.57089e-06 7.60158e-06 0.0870589)
(-1.34402e-06 -4.06501e-06 0.0711667)
(-8.53758e-07 7.57624e-06 0.0914474)
(-7.62039e-07 3.87145e-06 0.0808742)
(3.69824e-07 -9.79487e-06 0.0961801)
(1.86162e-07 -3.88966e-06 0.0830244)
(-8.87546e-08 1.07637e-05 0.0979278)
(9.11097e-07 -4.18207e-06 0.0808349)
(2.09214e-08 1.03885e-05 0.0962391)
(-1.33256e-07 3.48152e-06 0.0830561)
(-5.93184e-07 3.67738e-06 0.0712236)
(4.6578e-07 -7.38652e-06 0.0913805)
(1.55789e-06 7.59e-06 0.0870588)
(1.33404e-06 -4.05951e-06 0.071165)
(8.37687e-07 7.57976e-06 0.0914465)
(-4.10391e-06 -2.46116e-06 0.0746339)
(-2.45716e-06 -4.10102e-06 0.0746331)
(3.72143e-06 3.69779e-06 0.0892245)
(-2.11762e-06 -2.40156e-06 0.0717046)
(-2.38798e-06 -2.13502e-06 0.0716984)
(-3.76707e-06 -3.78508e-06 0.0891738)
(1.75099e-06 2.3494e-06 0.0717524)
(2.38182e-06 1.73755e-06 0.071746)
(1.2966e-05 5.74965e-06 0.0977483)
(-4.28073e-06 -2.48995e-06 0.0861354)
(-2.19344e-05 -1.28039e-05 0.101745)
(4.88081e-06 5.64432e-06 0.0931413)
(-1.2947e-05 -6.25917e-06 0.0976893)
(2.12021e-05 1.13447e-05 0.101798)
(3.72906e-06 2.41714e-06 0.0861842)
(5.80477e-06 1.29709e-05 0.0977421)
(-2.4983e-06 -4.32289e-06 0.0861313)
(-1.27802e-05 -2.19043e-05 0.101744)
(5.64635e-06 4.86562e-06 0.093139)
(-6.26188e-06 -1.29742e-05 0.0976835)
(1.13845e-05 2.1189e-05 0.101796)
(2.47184e-06 3.75504e-06 0.0861787)
(3.71812e-06 2.65591e-06 0.0746861)
(2.65617e-06 3.70838e-06 0.074685)
(-1.40893e-06 1.4247e-06 0.105988)
(-6.0525e-07 -7.20937e-07 0.106076)
(7.22415e-07 6.06654e-07 0.106076)
(5.94283e-07 -5.97474e-07 0.106128)
(1.40891e-06 1.40697e-06 0.105988)
(6.17066e-07 -7.27569e-07 0.106076)
(-7.2052e-07 6.12772e-07 0.106076)
(-5.9352e-07 -5.9068e-07 0.106128)
(-1.41567e-06 -1.40288e-06 0.105988)
(6.99288e-07 -6.08111e-07 0.106076)
(-6.11183e-07 6.83128e-07 0.106076)
(6.01956e-07 5.81795e-07 0.106128)
(1.41109e-06 -1.41282e-06 0.105988)
(-7.37765e-07 -6.08993e-07 0.106076)
(6.12735e-07 7.21051e-07 0.106076)
(-5.92888e-07 5.85107e-07 0.106128)
(-1.4079e-06 1.42131e-06 0.105988)
(-6.02364e-07 -7.24309e-07 0.106076)
(7.25601e-07 6.03875e-07 0.106076)
(5.99909e-07 -6.00254e-07 0.106128)
(1.4069e-06 1.40662e-06 0.105988)
(6.11983e-07 -7.31728e-07 0.106076)
(-7.23074e-07 6.07517e-07 0.106076)
(-5.98225e-07 -5.99346e-07 0.106128)
(1.43472e-07 -7.63625e-05 0.104906)
(-3.13444e-07 -2.24228e-05 0.103531)
(3.66356e-07 7.39445e-05 0.105131)
(6.88244e-07 2.31022e-05 0.102973)
(-2.54288e-07 -7.26112e-05 0.105102)
(-8.1784e-07 -2.27304e-05 0.102918)
(2.85649e-07 7.88914e-05 0.104948)
(1.77813e-06 -8.63354e-05 0.104417)
(-9.50332e-07 2.27909e-05 0.10143)
(4.784e-06 -1.93201e-05 0.0988245)
(-4.90249e-06 8.78825e-05 0.103635)
(6.49755e-06 -9.02511e-05 0.103576)
(-3.87215e-07 -2.25652e-05 0.101352)
(-1.08649e-06 8.79956e-05 0.104476)
(-1.91449e-05 -1.91631e-05 0.102628)
(-5.81655e-05 -5.81815e-05 0.105196)
(2.05543e-05 6.9528e-05 0.104447)
(6.94969e-05 2.05501e-05 0.104446)
(-2.05806e-05 -6.93804e-05 0.104407)
(-6.93196e-05 -2.05753e-05 0.104406)
(1.98813e-05 1.9865e-05 0.102685)
(-1.97995e-05 -1.99945e-05 0.102685)
(-6.21688e-05 -6.22079e-05 0.105229)
(6.93536e-05 2.05562e-05 0.104408)
(2.05792e-05 6.92921e-05 0.104405)
(1.91699e-05 1.91362e-05 0.102628)
(-6.95304e-05 -2.06175e-05 0.104446)
(-2.05237e-05 -6.94972e-05 0.104448)
(2.69778e-07 -7.89318e-05 0.104948)
(-8.33691e-07 2.27232e-05 0.102919)
(-2.55596e-07 7.25502e-05 0.105102)
(3.37928e-07 -2.20953e-05 0.103572)
(1.48217e-07 7.63061e-05 0.104907)
(6.65578e-07 -2.31134e-05 0.102974)
(3.73396e-07 -7.39646e-05 0.105131)
(-1.12544e-06 -8.80007e-05 0.104476)
(-4.29908e-07 2.25395e-05 0.101353)
(6.49143e-06 9.02886e-05 0.103576)
(-5.70241e-06 -1.77818e-05 0.0989095)
(-4.88197e-06 -8.78437e-05 0.103636)
(1.78147e-06 8.63429e-05 0.104418)
(-9.62822e-07 -2.277e-05 0.101431)
(-2.75193e-07 -7.89545e-05 0.104948)
(8.27376e-07 2.27239e-05 0.102919)
(2.67211e-07 7.25677e-05 0.105102)
(-3.2972e-07 -2.20952e-05 0.103572)
(-1.40246e-07 7.63006e-05 0.104907)
(-6.48746e-07 -2.31676e-05 0.102973)
(-3.82684e-07 -7.39513e-05 0.105131)
(1.08302e-06 -8.79623e-05 0.104476)
(4.13258e-07 2.25711e-05 0.101352)
(-6.50826e-06 9.0327e-05 0.103575)
(5.73622e-06 -1.79139e-05 0.0989076)
(-1.79021e-06 8.63804e-05 0.104417)
(9.84362e-07 -2.281e-05 0.101429)
(4.83896e-06 -8.78514e-05 0.103635)
(1.99254e-05 -1.99146e-05 0.102686)
(6.22066e-05 -6.21726e-05 0.105229)
(-6.93532e-05 2.05745e-05 0.104407)
(-2.05916e-05 6.93223e-05 0.104407)
(6.95228e-05 -2.05519e-05 0.104447)
(-1.91705e-05 1.91099e-05 0.102628)
(2.05863e-05 -6.95497e-05 0.104447)
(7.6331e-05 -1.39392e-07 0.104907)
(2.24195e-05 3.30447e-07 0.103531)
(-7.39335e-05 -3.88737e-07 0.105131)
(-2.31115e-05 -6.90325e-07 0.102973)
(7.26015e-05 2.69932e-07 0.105102)
(2.27172e-05 8.3943e-07 0.102919)
(-7.89215e-05 -2.90481e-07 0.104948)
(8.63748e-05 -1.77456e-06 0.104417)
(-2.27635e-05 9.41535e-07 0.10143)
(1.93055e-05 -4.76942e-06 0.0988224)
(-8.78604e-05 4.84369e-06 0.103635)
(2.25514e-05 4.0756e-07 0.101352)
(-8.79593e-05 1.07095e-06 0.104476)
(9.02918e-05 -6.47501e-06 0.103575)
(-7.88802e-05 2.95151e-07 0.104948)
(2.27262e-05 -8.12096e-07 0.102919)
(7.25819e-05 -2.70565e-07 0.105102)
(-2.21099e-05 3.36566e-07 0.103572)
(7.63597e-05 1.29376e-07 0.104907)
(-2.31014e-05 6.8479e-07 0.102973)
(-7.39452e-05 3.65809e-07 0.105131)
(-8.80164e-05 -1.01954e-06 0.104476)
(2.25083e-05 -3.91153e-07 0.101353)
(9.029e-05 6.51141e-06 0.103575)
(-1.79853e-05 -5.72504e-06 0.0989085)
(-8.78635e-05 -4.83794e-06 0.103635)
(8.63124e-05 1.79267e-06 0.104418)
(-2.291e-05 -9.59577e-07 0.10143)
(-7.89346e-05 -2.88467e-07 0.104948)
(7.25853e-05 2.58419e-07 0.105102)
(2.27104e-05 8.39279e-07 0.102919)
(-2.21229e-05 -3.37969e-07 0.103572)
(7.63112e-05 -1.408e-07 0.104907)
(-7.39455e-05 -3.88172e-07 0.105131)
(-2.3142e-05 -6.81477e-07 0.102973)
(-8.79663e-05 1.06795e-06 0.104476)
(2.25322e-05 4.01355e-07 0.101352)
(9.02822e-05 -6.44976e-06 0.103575)
(-1.78499e-05 5.66835e-06 0.0989092)
(8.63567e-05 -1.76937e-06 0.104417)
(-2.27892e-05 9.42245e-07 0.10143)
(-8.78683e-05 4.85409e-06 0.103635)
(-7.63166e-05 -1.5217e-07 0.104907)
(-2.24067e-05 3.21256e-07 0.103531)
(7.39461e-05 -3.86605e-07 0.105131)
(2.31158e-05 -6.55373e-07 0.102973)
(-7.25789e-05 2.55751e-07 0.105102)
(-2.27385e-05 8.23606e-07 0.102919)
(7.89355e-05 -2.79389e-07 0.104948)
(-8.6377e-05 -1.79361e-06 0.104418)
(2.27585e-05 9.77492e-07 0.10143)
(-1.92961e-05 -4.77835e-06 0.0988241)
(8.78573e-05 4.86348e-06 0.103635)
(-9.02941e-05 -6.50665e-06 0.103576)
(-2.25647e-05 3.96111e-07 0.101352)
(8.79657e-05 1.10531e-06 0.104476)
(7.8878e-05 2.68358e-07 0.104948)
(-2.27468e-05 -8.21587e-07 0.102919)
(-7.25662e-05 -2.72871e-07 0.105102)
(2.20977e-05 3.27086e-07 0.103572)
(-7.63481e-05 1.21414e-07 0.104907)
(2.3081e-05 6.63827e-07 0.102973)
(7.39531e-05 3.60889e-07 0.105131)
(8.79802e-05 -1.08761e-06 0.104477)
(-2.25211e-05 -4.13634e-07 0.101352)
(-9.02634e-05 6.50813e-06 0.103576)
(1.7867e-05 -5.68206e-06 0.0989103)
(-8.63357e-05 1.77493e-06 0.104418)
(8.78497e-05 -4.88332e-06 0.103636)
(2.2829e-05 -9.59445e-07 0.101431)
(7.8947e-05 -2.84544e-07 0.104948)
(-7.25619e-05 2.43454e-07 0.105102)
(-2.27148e-05 8.36169e-07 0.102919)
(2.21009e-05 -3.2761e-07 0.103572)
(-7.62959e-05 -1.57144e-07 0.104907)
(7.39579e-05 -3.91105e-07 0.105131)
(2.31508e-05 -6.50633e-07 0.102973)
(8.79724e-05 1.09596e-06 0.104476)
(-2.25483e-05 3.96199e-07 0.101352)
(-9.0277e-05 -6.48699e-06 0.103576)
(1.78932e-05 5.70254e-06 0.0989086)
(-8.63511e-05 -1.78049e-06 0.104418)
(2.27892e-05 9.7254e-07 0.10143)
(8.78628e-05 4.87575e-06 0.103635)
(1.90845e-05 -1.91819e-05 0.102628)
(5.81318e-05 -5.81911e-05 0.105196)
(-2.05303e-05 6.95071e-05 0.104447)
(-6.95489e-05 2.05752e-05 0.104447)
(6.93136e-05 -2.05863e-05 0.104407)
(2.05506e-05 -6.93704e-05 0.104406)
(-1.98814e-05 1.99018e-05 0.102685)
(-1.98861e-05 1.99096e-05 0.102685)
(-6.21703e-05 6.22046e-05 0.105229)
(2.05276e-05 -6.93549e-05 0.104406)
(6.92965e-05 -2.05658e-05 0.104407)
(-2.0544e-05 6.95134e-05 0.104447)
(1.90804e-05 -1.91772e-05 0.102628)
(-6.9554e-05 2.05926e-05 0.104447)
(-1.28801e-07 -7.63739e-05 0.104906)
(3.22675e-07 -2.24252e-05 0.10353)
(-3.78352e-07 7.39284e-05 0.105131)
(-6.91488e-07 2.30927e-05 0.102973)
(2.58666e-07 -7.26279e-05 0.105102)
(8.11182e-07 -2.27486e-05 0.102918)
(-3.02757e-07 7.88851e-05 0.104948)
(-1.75737e-06 -8.63311e-05 0.104417)
(9.50372e-07 2.28288e-05 0.101429)
(-4.76516e-06 -1.93097e-05 0.0988235)
(4.88229e-06 8.78803e-05 0.103635)
(-6.49199e-06 -9.0277e-05 0.103575)
(3.9366e-07 -2.25687e-05 0.101352)
(1.07129e-06 8.80149e-05 0.104476)
(2.81394e-07 7.89044e-05 0.104948)
(-2.57775e-07 -7.25905e-05 0.105102)
(-8.23657e-07 -2.27151e-05 0.102918)
(3.33889e-07 2.21246e-05 0.103572)
(1.37651e-07 -7.63375e-05 0.104906)
(3.6543e-07 7.39556e-05 0.105131)
(6.79177e-07 2.31255e-05 0.102973)
(-1.0919e-06 8.80049e-05 0.104476)
(-3.82188e-07 -2.25536e-05 0.101352)
(6.47689e-06 -9.02384e-05 0.103576)
(-5.72208e-06 1.79255e-05 0.0989083)
(1.76998e-06 -8.63159e-05 0.104417)
(-4.91649e-06 8.78901e-05 0.103635)
(-9.53961e-07 2.28192e-05 0.10143)
(-3.01082e-07 7.88991e-05 0.104948)
(2.60758e-07 -7.26071e-05 0.105102)
(8.19578e-07 -2.27149e-05 0.102918)
(-3.3341e-07 2.21118e-05 0.103572)
(-1.26406e-07 -7.63489e-05 0.104906)
(-3.73727e-07 7.39399e-05 0.105131)
(-6.82063e-07 2.31253e-05 0.102973)
(1.07013e-06 8.80251e-05 0.104476)
(3.86415e-07 -2.25548e-05 0.101352)
(-6.47447e-06 -9.0264e-05 0.103575)
(5.70886e-06 1.79399e-05 0.0989085)
(-1.75193e-06 -8.63099e-05 0.104417)
(9.46591e-07 2.2851e-05 0.101429)
(4.89172e-06 8.78873e-05 0.103635)
(1.98896e-05 1.98739e-05 0.102685)
(6.21619e-05 6.2188e-05 0.105229)
(-2.05583e-05 -6.93649e-05 0.104407)
(-6.9304e-05 -2.05532e-05 0.104406)
(-1.9134e-05 -1.91515e-05 0.102628)
(2.05694e-05 6.95347e-05 0.104447)
(6.95033e-05 2.05662e-05 0.104446)
(2.43857e-06 4.09859e-06 0.0746349)
(4.03001e-06 2.43862e-06 0.0746333)
(5.81554e-05 5.81562e-05 0.105196)
(5.80443e-06 5.72576e-06 0.0930813)
(5.75927e-06 5.79937e-06 0.0930785)
(-1.68059e-07 1.02546e-05 0.097876)
(4.26944e-07 8.30902e-06 0.0870034)
(1.39215e-07 1.02717e-05 0.097876)
(-3.24264e-07 2.23625e-05 0.103531)
(1.6762e-06 1.16416e-06 0.105646)
(4.7796e-06 1.92512e-05 0.0988246)
(-3.74631e-07 1.30419e-06 0.105871)
(3.20053e-07 2.23773e-05 0.103531)
(3.21503e-07 1.32033e-06 0.105871)
(1.03279e-05 -1.47993e-07 0.0978767)
(8.19761e-06 3.95761e-07 0.0870028)
(2.23948e-05 -3.09545e-07 0.103531)
(1.05493e-06 1.54012e-06 0.105646)
(1.93344e-05 4.72988e-06 0.0988231)
(1.27744e-06 -2.94348e-07 0.105871)
(1.03319e-05 1.70939e-07 0.0978766)
(8.18822e-06 -4.15586e-07 0.0870014)
(2.24125e-05 3.28899e-07 0.103531)
(1.11289e-06 -1.64827e-06 0.105646)
(1.32392e-06 3.10777e-07 0.105871)
(1.92901e-05 -4.74687e-06 0.0988224)
(3.94803e-06 -2.3885e-06 0.0746301)
(5.81279e-05 -5.81297e-05 0.105196)
(5.67398e-06 -5.78632e-06 0.0930762)
(5.81669e-06 -5.735e-06 0.0930803)
(2.44005e-06 -4.06217e-06 0.0746345)
(-3.25945e-07 -2.23579e-05 0.10353)
(1.60692e-06 -1.09619e-06 0.105646)
(-3.14286e-07 -1.25001e-06 0.105871)
(4.76041e-06 -1.93133e-05 0.0988242)
(3.19347e-07 -2.2365e-05 0.103531)
(3.16712e-07 -1.2678e-06 0.105871)
(-1.69841e-07 -1.02692e-05 0.0978751)
(4.24558e-07 -8.26616e-06 0.0870036)
(1.48387e-07 -1.03299e-05 0.0978765)
(-2.7206e-06 -3.74673e-06 0.0746874)
(-3.80813e-06 -2.71688e-06 0.0746862)
(-3.68069e-06 -3.74816e-06 0.0892251)
(2.3026e-06 2.02835e-06 0.0717037)
(2.13146e-06 2.32627e-06 0.0716987)
(3.78774e-06 3.74787e-06 0.0891739)
(-2.43835e-06 -1.83442e-06 0.0717518)
(-1.74395e-06 -2.44332e-06 0.0717468)
(-5.88665e-06 -1.30839e-05 0.0977479)
(2.37574e-06 4.27488e-06 0.0861365)
(1.27322e-05 2.18451e-05 0.101746)
(-5.71466e-06 -4.83726e-06 0.0931408)
(6.1321e-06 1.2897e-05 0.097689)
(-2.57469e-06 -3.81124e-06 0.086184)
(-1.14036e-05 -2.13071e-05 0.101798)
(-1.30449e-05 -5.85938e-06 0.0977421)
(4.29289e-06 2.39798e-06 0.0861317)
(2.19202e-05 1.28045e-05 0.101743)
(-4.83499e-06 -5.72949e-06 0.093139)
(1.29013e-05 6.24314e-06 0.0976833)
(-3.81397e-06 -2.57954e-06 0.0861794)
(-2.11967e-05 -1.13704e-05 0.101796)
(6.89981e-07 -3.8943e-06 0.0808751)
(-2.25908e-07 3.61768e-06 0.0830228)
(-3.86838e-07 9.74076e-06 0.0961796)
(9.27982e-08 -1.07112e-05 0.0979291)
(-9.96636e-07 3.94542e-06 0.0808316)
(1.03982e-07 -3.53396e-06 0.0830579)
(-2.0231e-08 -1.03164e-05 0.0962405)
(6.03919e-07 -3.64095e-06 0.0712266)
(-5.08272e-07 7.39823e-06 0.0913795)
(-1.59374e-06 -7.56061e-06 0.0870595)
(-1.42017e-06 3.82621e-06 0.0711612)
(-8.35309e-07 -7.48581e-06 0.0914491)
(-7.89161e-07 -3.96164e-06 0.0808748)
(1.96502e-07 3.62742e-06 0.0830233)
(3.29487e-07 9.81594e-06 0.0961799)
(-9.17791e-08 -1.07105e-05 0.0979289)
(9.12999e-07 4.04986e-06 0.0808347)
(-1.40607e-07 -3.54373e-06 0.083058)
(3.07927e-10 -1.03779e-05 0.0962392)
(-4.0075e-06 6.98671e-07 0.0808742)
(9.79752e-06 -3.72965e-07 0.0961805)
(3.70024e-06 -2.07036e-07 0.0830245)
(-1.08072e-05 8.79428e-08 0.0979275)
(4.02659e-06 -9.75455e-07 0.0808346)
(-1.04156e-05 -2.91354e-08 0.0962391)
(-3.6419e-06 1.13247e-07 0.0830566)
(-3.74781e-06 5.66527e-07 0.071223)
(7.41371e-06 -4.89768e-07 0.0913801)
(-7.61793e-06 -1.58669e-06 0.0870599)
(3.95764e-06 -1.35504e-06 0.0711635)
(-7.58597e-06 -8.63818e-07 0.0914473)
(-3.91514e-06 -7.05822e-07 0.0808751)
(3.69781e-06 2.02961e-07 0.0830242)
(9.746e-06 3.9305e-07 0.096179)
(-1.07949e-05 -1.02889e-07 0.0979273)
(3.95024e-06 9.66267e-07 0.0808319)
(-3.62694e-06 -1.11957e-07 0.0830566)
(-1.03355e-05 -3.1573e-10 0.0962397)
(-3.63431e-06 -6.08905e-07 0.0712274)
(7.36823e-06 5.09821e-07 0.0913786)
(-7.56269e-06 1.55967e-06 0.0870599)
(3.82978e-06 1.40182e-06 0.0711618)
(-7.51185e-06 8.18499e-07 0.0914485)
(-3.67946e-06 2.64326e-06 0.0746881)
(-3.7086e-06 3.69025e-06 0.0892245)
(2.05653e-06 -2.31908e-06 0.0716978)
(2.30629e-06 -2.06528e-06 0.0717043)
(3.77448e-06 -3.81189e-06 0.0891734)
(-1.78941e-06 2.41186e-06 0.0717464)
(-2.42566e-06 1.78655e-06 0.0717527)
(-1.30418e-05 5.83606e-06 0.0977424)
(4.23165e-06 -2.38377e-06 0.0861297)
(2.18353e-05 -1.28074e-05 0.101743)
(-4.77718e-06 5.65838e-06 0.0931409)
(-2.12623e-05 1.13364e-05 0.101797)
(1.28446e-05 -6.20889e-06 0.0976825)
(-3.77586e-06 2.52572e-06 0.0861797)
(-5.81791e-06 1.30402e-05 0.0977482)
(2.36635e-06 -4.2259e-06 0.0861356)
(1.27896e-05 -2.18892e-05 0.101745)
(-5.70491e-06 4.85485e-06 0.0931408)
(6.1736e-06 -1.28839e-05 0.0976888)
(-2.52655e-06 3.79734e-06 0.0861846)
(-1.13599e-05 2.12234e-05 0.101798)
(-2.7261e-06 3.7828e-06 0.0746871)
(7.25168e-07 3.91316e-06 0.0808754)
(-3.55228e-07 -9.74697e-06 0.0961784)
(-2.16298e-07 -3.61539e-06 0.0830228)
(9.63796e-08 1.07134e-05 0.0979288)
(-9.83006e-07 -3.95069e-06 0.0808325)
(-1.62481e-08 1.03248e-05 0.0962399)
(1.04927e-07 3.55646e-06 0.0830577)
(6.00172e-07 3.73622e-06 0.0712268)
(-4.57549e-07 -7.43122e-06 0.0913805)
(-1.5937e-06 7.63319e-06 0.087059)
(-1.34837e-06 -3.94649e-06 0.0711671)
(-8.47354e-07 7.56824e-06 0.0914467)
(-7.71429e-07 3.89273e-06 0.0808761)
(3.60828e-07 -9.75512e-06 0.0961789)
(2.01126e-07 -3.68548e-06 0.083024)
(-1.01633e-07 1.07732e-05 0.0979277)
(9.18347e-07 -3.9693e-06 0.0808326)
(-2.54248e-08 1.0316e-05 0.0962408)
(-1.25471e-07 3.6113e-06 0.0830569)
(-1.35e-06 -1.45439e-06 0.105988)
(6.66534e-07 -6.53333e-07 0.106076)
(-6.1954e-07 6.90082e-07 0.106076)
(5.33512e-07 5.26744e-07 0.106128)
(-7.16106e-07 -6.47645e-07 0.106076)
(-5.14646e-07 5.26044e-07 0.106128)
(-1.39961e-06 1.34285e-06 0.105988)
(-6.41404e-07 -6.62137e-07 0.106076)
(6.28964e-07 6.47558e-07 0.106076)
(5.01072e-07 -5.63791e-07 0.106128)
(-6.51537e-07 6.3538e-07 0.106076)
(-5.05874e-07 -5.65123e-07 0.106128)
(-2.00028e-05 -1.98961e-05 0.102685)
(-6.21918e-05 -6.22035e-05 0.105229)
(6.93941e-05 2.06019e-05 0.104407)
(2.04838e-05 6.92716e-05 0.104406)
(1.90098e-05 1.91847e-05 0.102627)
(-6.95127e-05 -2.05549e-05 0.104447)
(-2.06097e-05 -6.95775e-05 0.104446)
(2.43624e-07 -7.89449e-05 0.104948)
(-8.59881e-07 2.26685e-05 0.102919)
(-2.43039e-07 7.25493e-05 0.105102)
(3.34859e-07 -2.21333e-05 0.103572)
(1.30248e-07 7.62874e-05 0.104907)
(6.39811e-07 -2.31391e-05 0.102973)
(3.78405e-07 -7.39767e-05 0.105131)
(-1.09921e-06 -8.79285e-05 0.104476)
(-4.55495e-07 2.25063e-05 0.101353)
(6.54234e-06 9.02765e-05 0.103576)
(-5.75331e-06 -1.79124e-05 0.0989082)
(-4.85881e-06 -8.7852e-05 0.103635)
(1.81476e-06 8.6393e-05 0.104418)
(-1.0315e-06 -2.2777e-05 0.10143)
(-2.67002e-07 -7.89498e-05 0.104948)
(8.44994e-07 2.26934e-05 0.102919)
(2.65954e-07 7.2562e-05 0.105102)
(-3.30524e-07 -2.21282e-05 0.103572)
(-1.24401e-07 7.62784e-05 0.104907)
(-6.44957e-07 -2.3145e-05 0.102973)
(-3.75262e-07 -7.39571e-05 0.105131)
(-7.89395e-05 2.76442e-07 0.104948)
(2.2711e-05 -8.30134e-07 0.102919)
(7.25337e-05 -2.69472e-07 0.105102)
(-2.21199e-05 3.39621e-07 0.103572)
(7.63016e-05 7.99026e-08 0.104907)
(-2.31143e-05 6.80922e-07 0.102973)