/*--------------------------------*- C++ -*----------------------------------*\
| =========                 |                                                 |
| \\      /  F ield         | OpenFOAM: The Open Source CFD Toolbox           |
|  \\    /   O peration     | Version:  v1912                                 |
|   \\  /    A nd           | Website:  www.openfoam.com                      |
|    \\/     M anipulation  |                                                 |
\*---------------------------------------------------------------------------*/
FoamFile
{
    version     2.0;
    format      ascii;
    class       volScalarField;
    location    "60";
    object      k;
}
// * * * * * * * * * * * * * * * * * * * * * * * * * * * * * * * * * * * * * //

dimensions      [0 2 -2 0 0 0 0];


internalField   nonuniform List<scalar> 
57100
(
3.58931e-05
3.58911e-05
3.58911e-05
3.59956e-05
3.39296e-05
3.38891e-05
3.38891e-05
3.39624e-05
3.21576e-05
3.20078e-05
3.20078e-05
3.19521e-05
3.05344e-05
3.02288e-05
3.02287e-05
2.99885e-05
2.90325e-05
2.85534e-05
2.85533e-05
2.8123e-05
2.76349e-05
2.69865e-05
2.69864e-05
2.63918e-05
2.63305e-05
2.55306e-05
2.55304e-05
2.48089e-05
2.51108e-05
2.41844e-05
2.41842e-05
2.33801e-05
2.39696e-05
2.29498e-05
2.29496e-05
2.21073e-05
2.29076e-05
2.18284e-05
2.18282e-05
2.09894e-05
2.1906e-05
2.08076e-05
2.08074e-05
2.00155e-05
2.09979e-05
1.99104e-05
1.99101e-05
1.91856e-05
2.01041e-05
1.90737e-05
1.90734e-05
1.8474e-05
1.93013e-05
1.83523e-05
1.83522e-05
1.78493e-05
1.89262e-05
1.81105e-05
1.81105e-05
1.76782e-05
1.88555e-05
1.81218e-05
1.81217e-05
1.77551e-05
1.88572e-05
1.81514e-05
1.81514e-05
1.78076e-05
1.88612e-05
1.81635e-05
1.81635e-05
1.78273e-05
1.8864e-05
1.81692e-05
1.81692e-05
1.78366e-05
1.88659e-05
1.81725e-05
1.81725e-05
1.7842e-05
1.88675e-05
1.81747e-05
1.81747e-05
1.78448e-05
1.88687e-05
1.8176e-05
1.8176e-05
1.78456e-05
1.88696e-05
1.8177e-05
1.8177e-05
1.78457e-05
1.88696e-05
1.81777e-05
1.81776e-05
1.78459e-05
1.88696e-05
1.81777e-05
1.81776e-05
1.78458e-05
1.88696e-05
1.81777e-05
1.81777e-05
1.78458e-05
1.88696e-05
1.81777e-05
1.81777e-05
1.78457e-05
1.88696e-05
1.81777e-05
1.81776e-05
1.78458e-05
1.88696e-05
1.81777e-05
1.81776e-05
1.78458e-05
1.88696e-05
1.81777e-05
1.8178e-05
1.78458e-05
3.63068e-05
3.6291e-05
3.6291e-05
3.63068e-05
3.6291e-05
3.6291e-05
3.6423e-05
3.6423e-05
3.6423e-05
3.6423e-05
3.6291e-05
3.6291e-05
3.63068e-05
3.6291e-05
3.6291e-05
3.63068e-05
3.59956e-05
3.42691e-05
3.58911e-05
3.58911e-05
3.43769e-05
3.43768e-05
3.59956e-05
3.42691e-05
3.58911e-05
3.58911e-05
3.43769e-05
3.43768e-05
3.58911e-05
3.43769e-05
3.43769e-05
3.59957e-05
3.42691e-05
3.58911e-05
3.43769e-05
3.43769e-05
3.42691e-05
3.39624e-05
3.22638e-05
3.3889e-05
3.3889e-05
3.24682e-05
3.24681e-05
3.39624e-05
3.22639e-05
3.3889e-05
3.3889e-05
3.24682e-05
3.24681e-05
3.3889e-05
3.24683e-05
3.24682e-05
3.39624e-05
3.22638e-05
3.3889e-05
3.24683e-05
3.24682e-05
3.22638e-05
3.19522e-05
3.02999e-05
3.20077e-05
3.20076e-05
3.06639e-05
3.06637e-05
3.19522e-05
3.03e-05
3.20077e-05
3.20075e-05
3.0664e-05
3.06636e-05
3.20077e-05
3.06642e-05
3.06638e-05
3.19521e-05
3.02998e-05
3.20077e-05
3.06641e-05
3.0664e-05
3.02998e-05
2.99886e-05
2.84262e-05
3.02285e-05
3.02284e-05
2.89618e-05
2.89616e-05
2.99886e-05
2.84264e-05
3.02287e-05
3.02283e-05
2.8962e-05
2.89615e-05
3.02285e-05
2.89622e-05
2.89618e-05
2.99885e-05
2.84261e-05
3.02286e-05
2.89621e-05
2.8962e-05
2.84261e-05
2.81232e-05
2.66751e-05
2.8553e-05
2.85528e-05
2.73675e-05
2.73672e-05
2.81232e-05
2.66752e-05
2.85532e-05
2.85526e-05
2.73677e-05
2.7367e-05
2.85529e-05
2.7368e-05
2.73674e-05
2.8123e-05
2.66749e-05
2.85532e-05
2.73679e-05
2.73677e-05
2.66749e-05
2.63919e-05
2.50679e-05
2.6986e-05
2.69857e-05
2.58837e-05
2.58834e-05
2.6392e-05
2.50681e-05
2.69863e-05
2.69856e-05
2.58841e-05
2.58832e-05
2.69859e-05
2.58844e-05
2.58836e-05
2.63918e-05
2.50677e-05
2.69863e-05
2.58842e-05
2.5884e-05
2.50677e-05
2.48091e-05
2.36145e-05
2.55299e-05
2.55297e-05
2.45095e-05
2.45092e-05
2.48093e-05
2.36147e-05
2.55304e-05
2.55295e-05
2.451e-05
2.4509e-05
2.55299e-05
2.45104e-05
2.45094e-05
2.48089e-05
2.36143e-05
2.55303e-05
2.45102e-05
2.451e-05
2.36143e-05
2.33804e-05
2.23153e-05
2.41837e-05
2.41834e-05
2.32478e-05
2.32474e-05
2.33805e-05
2.23155e-05
2.41842e-05
2.41831e-05
2.32483e-05
2.32472e-05
2.41836e-05
2.32487e-05
2.32477e-05
2.33802e-05
2.23151e-05
2.41842e-05
2.32485e-05
2.32483e-05
2.2315e-05
2.21076e-05
2.11712e-05
2.29489e-05
2.29486e-05
2.20969e-05
2.20965e-05
2.21077e-05
2.11714e-05
2.29495e-05
2.29483e-05
2.20976e-05
2.20963e-05
2.29488e-05
2.2098e-05
2.20968e-05
2.21074e-05
2.11709e-05
2.29495e-05
2.20978e-05
2.20975e-05
2.11709e-05
2.09897e-05
2.0174e-05
2.18274e-05
2.18271e-05
2.10529e-05
2.10525e-05
2.09898e-05
2.01742e-05
2.18281e-05
2.18269e-05
2.10537e-05
2.10523e-05
2.18274e-05
2.10541e-05
2.10529e-05
2.09895e-05
2.01738e-05
2.18281e-05
2.10539e-05
2.10537e-05
2.01737e-05
2.00158e-05
1.93177e-05
2.08066e-05
2.08063e-05
2.01207e-05
2.01203e-05
2.00159e-05
1.93178e-05
2.08073e-05
2.0806e-05
2.01215e-05
2.01201e-05
2.08066e-05
2.01219e-05
2.01207e-05
2.00155e-05
1.93174e-05
2.08074e-05
2.01217e-05
2.01215e-05
1.93173e-05
1.91859e-05
1.85926e-05
1.99093e-05
1.9909e-05
1.92846e-05
1.92843e-05
1.91861e-05
1.85928e-05
1.99101e-05
1.99088e-05
1.92855e-05
1.92841e-05
1.99093e-05
1.9286e-05
1.92846e-05
1.91857e-05
1.85924e-05
1.99102e-05
1.92858e-05
1.92855e-05
1.85923e-05
1.84743e-05
1.79252e-05
1.90726e-05
1.90723e-05
1.84946e-05
1.84943e-05
1.84745e-05
1.79254e-05
1.90735e-05
1.90722e-05
1.84954e-05
1.84941e-05
1.90726e-05
1.84957e-05
1.84945e-05
1.84741e-05
1.7925e-05
1.90735e-05
1.84955e-05
1.84954e-05
1.79248e-05
1.78495e-05
1.76792e-05
1.83515e-05
1.83512e-05
1.81279e-05
1.81276e-05
1.78496e-05
1.7679e-05
1.83523e-05
1.8351e-05
1.81286e-05
1.81274e-05
1.83515e-05
1.81287e-05
1.8128e-05
1.78494e-05
1.76787e-05
1.83523e-05
1.81286e-05
1.81288e-05
1.76791e-05
1.76791e-05
1.77489e-05
1.81099e-05
1.81096e-05
1.8111e-05
1.81108e-05
1.76788e-05
1.77487e-05
1.81105e-05
1.81093e-05
1.81117e-05
1.81105e-05
1.811e-05
1.81122e-05
1.81112e-05
1.76785e-05
1.77484e-05
1.81108e-05
1.81121e-05
1.81119e-05
1.77485e-05
1.77555e-05
1.78055e-05
1.81223e-05
1.8122e-05
1.81464e-05
1.8146e-05
1.77552e-05
1.7805e-05
1.8123e-05
1.81217e-05
1.81471e-05
1.81456e-05
1.81224e-05
1.81472e-05
1.81467e-05
1.7755e-05
1.78047e-05
1.81232e-05
1.81471e-05
1.81475e-05
1.78059e-05
1.78072e-05
1.78258e-05
1.81517e-05
1.81513e-05
1.81611e-05
1.81608e-05
1.78066e-05
1.78253e-05
1.81524e-05
1.81509e-05
1.81617e-05
1.81604e-05
1.81521e-05
1.81619e-05
1.81616e-05
1.78063e-05
1.7825e-05
1.81529e-05
1.81619e-05
1.81624e-05
1.7827e-05
1.78262e-05
1.78356e-05
1.81634e-05
1.81631e-05
1.81675e-05
1.81674e-05
1.78257e-05
1.78351e-05
1.81641e-05
1.81628e-05
1.81682e-05
1.8167e-05
1.8164e-05
1.81684e-05
1.81684e-05
1.78254e-05
1.78348e-05
1.81648e-05
1.81684e-05
1.81691e-05
1.78369e-05
1.78357e-05
1.78411e-05
1.81689e-05
1.81688e-05
1.81712e-05
1.81712e-05
1.7835e-05
1.78406e-05
1.81696e-05
1.81685e-05
1.81718e-05
1.81708e-05
1.81698e-05
1.8172e-05
1.81721e-05
1.78348e-05
1.78403e-05
1.81706e-05
1.8172e-05
1.81729e-05
1.78425e-05
1.7841e-05
1.78446e-05
1.81721e-05
1.81721e-05
1.81736e-05
1.81737e-05
1.78405e-05
1.78441e-05
1.81728e-05
1.81717e-05
1.81743e-05
1.81733e-05
1.8173e-05
1.81743e-05
1.81745e-05
1.78404e-05
1.78438e-05
1.81738e-05
1.81743e-05
1.81753e-05
1.78456e-05
1.78445e-05
1.78458e-05
1.81744e-05
1.81745e-05
1.81755e-05
1.81756e-05
1.78441e-05
1.78451e-05
1.8175e-05
1.8174e-05
1.81762e-05
1.81752e-05
1.81753e-05
1.81758e-05
1.81764e-05
1.78438e-05
1.78448e-05
1.81761e-05
1.81758e-05
1.81772e-05
1.78466e-05
1.78457e-05
1.78465e-05
1.81764e-05
1.81765e-05
1.81771e-05
1.81772e-05
1.78451e-05
1.78459e-05
1.81771e-05
1.81761e-05
1.81778e-05
1.81768e-05
1.81773e-05
1.81768e-05
1.81777e-05
1.78448e-05
1.78455e-05
1.81781e-05
1.81768e-05
1.81785e-05
1.78468e-05
1.78463e-05
1.78465e-05
1.8178e-05
1.81781e-05
1.81776e-05
1.81777e-05
1.7846e-05
1.7846e-05
1.81787e-05
1.81777e-05
1.81783e-05
1.81773e-05
1.81785e-05
1.81777e-05
1.81778e-05
1.78456e-05
1.78456e-05
1.81793e-05
1.81776e-05
1.81786e-05
1.78469e-05
1.78465e-05
1.78465e-05
1.8178e-05
1.81781e-05
1.81775e-05
1.81777e-05
1.78459e-05
1.7846e-05
1.81787e-05
1.81777e-05
1.81783e-05
1.81773e-05
1.81783e-05
1.81777e-05
1.81779e-05
1.78455e-05
1.78456e-05
1.81791e-05
1.81777e-05
1.81786e-05
1.78469e-05
1.78465e-05
1.78465e-05
1.8178e-05
1.81781e-05
1.81775e-05
1.81777e-05
1.7846e-05
1.78461e-05
1.81787e-05
1.81778e-05
1.81783e-05
1.81773e-05
1.81783e-05
1.81777e-05
1.81778e-05
1.78456e-05
1.78457e-05
1.81791e-05
1.81777e-05
1.81786e-05
1.78468e-05
1.78465e-05
1.78465e-05
1.8178e-05
1.81781e-05
1.81775e-05
1.81777e-05
1.78461e-05
1.78461e-05
1.81787e-05
1.81778e-05
1.81783e-05
1.81773e-05
1.81783e-05
1.81778e-05
1.81778e-05
1.78456e-05
1.78457e-05
1.8179e-05
1.81777e-05
1.81786e-05
1.78468e-05
1.78465e-05
1.78465e-05
1.8178e-05
1.81781e-05
1.81775e-05
1.81777e-05
1.7846e-05
1.78461e-05
1.81788e-05
1.81778e-05
1.81783e-05
1.81773e-05
1.81783e-05
1.81777e-05
1.81778e-05
1.78456e-05
1.78457e-05
1.8179e-05
1.81777e-05
1.81786e-05
1.78468e-05
1.78465e-05
1.78465e-05
1.8178e-05
1.81781e-05
1.81775e-05
1.81777e-05
1.7846e-05
1.78461e-05
1.81788e-05
1.81778e-05
1.81783e-05
1.81773e-05
1.81783e-05
1.81777e-05
1.81779e-05
1.78456e-05
1.78457e-05
1.81791e-05
1.81777e-05
1.81786e-05
1.78469e-05
1.78465e-05
1.78464e-05
1.8178e-05
1.81781e-05
1.81775e-05
1.81777e-05
1.7846e-05
1.78461e-05
1.81788e-05
1.81778e-05
1.81783e-05
1.81773e-05
1.81783e-05
1.81777e-05
1.81778e-05
1.78456e-05
1.78456e-05
1.81791e-05
1.81779e-05
1.81786e-05
1.78469e-05
1.78464e-05
1.81779e-05
1.81781e-05
1.7846e-05
1.81788e-05
1.81775e-05
1.81781e-05
1.78455e-05
1.81789e-05
3.73773e-05
3.73765e-05
3.7377e-05
3.7377e-05
3.73701e-05
3.73777e-05
3.73044e-05
3.73768e-05
3.73702e-05
3.73777e-05
3.73768e-05
3.73044e-05
3.73741e-05
3.72959e-05
3.72959e-05
3.58864e-05
4.08671e-05
3.6602e-05
4.51361e-05
5.51074e-05
6.48941e-05
3.5887e-05
4.08663e-05
3.6602e-05
4.51359e-05
3.58931e-05
3.58932e-05
3.58932e-05
3.44005e-05
3.44004e-05
3.44005e-05
3.44005e-05
3.52761e-05
3.5635e-05
3.58928e-05
3.53772e-05
3.60471e-05
3.42293e-05
3.53823e-05
5.51095e-05
6.48982e-05
3.52762e-05
3.58928e-05
3.56346e-05
3.53772e-05
3.6047e-05
3.53823e-05
3.42303e-05
3.65877e-05
3.65882e-05
3.52792e-05
3.40788e-05
3.40779e-05
3.39698e-05
5.13503e-05
3.46774e-05
5.46109e-05
7.65556e-05
8.08568e-05
3.39723e-05
5.13513e-05
3.4677e-05
5.46114e-05
3.39296e-05
3.39296e-05
3.39296e-05
3.25853e-05
3.25853e-05
3.25853e-05
3.25853e-05
3.30542e-05
3.24556e-05
3.39297e-05
3.34087e-05
3.38952e-05
3.15558e-05
3.34679e-05
7.65568e-05
8.08608e-05
3.30543e-05
3.39297e-05
3.24545e-05
3.34087e-05
3.38948e-05
3.34679e-05
3.15576e-05
3.17114e-05
3.17108e-05
3.32641e-05
3.09261e-05
3.09245e-05
3.22543e-05
5.91678e-05
3.29246e-05
6.14282e-05
8.43989e-05
8.50674e-05
3.22569e-05
5.91695e-05
3.29223e-05
6.14302e-05
3.21576e-05
3.21576e-05
3.21576e-05
3.0928e-05
3.09279e-05
3.09279e-05
3.09279e-05
3.07895e-05
3.04922e-05
3.21376e-05
3.15537e-05
3.16352e-05
2.98647e-05
3.17101e-05
8.44008e-05
8.50699e-05
3.07894e-05
3.21376e-05
3.04919e-05
3.15537e-05
3.16346e-05
3.17101e-05
2.98658e-05
3.02097e-05
3.02087e-05
3.12735e-05
2.99978e-05
2.99964e-05
3.07572e-05
6.43537e-05
3.13538e-05
6.57177e-05
8.46226e-05
8.38969e-05
3.07581e-05
6.43552e-05
3.13534e-05
6.57211e-05
3.05344e-05
3.05344e-05
3.05344e-05
2.93977e-05
2.93977e-05
2.93976e-05
2.93976e-05
2.86011e-05
2.91203e-05
3.04693e-05
2.98001e-05
2.94103e-05
2.86542e-05
3.00686e-05
8.46229e-05
8.38994e-05
2.86009e-05
3.04692e-05
2.91209e-05
2.98e-05
2.94099e-05
3.00685e-05
2.86552e-05
2.99291e-05
2.9928e-05
2.93491e-05
3.0022e-05
3.00209e-05
2.95224e-05
6.73263e-05
3.00048e-05
6.80296e-05
8.22234e-05
8.12032e-05
2.95234e-05
6.73283e-05
3.00051e-05
6.80335e-05
2.90325e-05
2.90325e-05
2.90325e-05
2.79754e-05
2.79754e-05
2.79753e-05
2.79753e-05
2.65687e-05
2.81042e-05
2.89023e-05
2.81515e-05
2.73129e-05
2.77639e-05
2.85254e-05
8.22229e-05
8.12047e-05
2.65687e-05
2.89022e-05
2.81046e-05
2.81513e-05
2.73125e-05
2.85252e-05
2.77648e-05
3.04331e-05
3.04324e-05
2.75339e-05
3.07516e-05
3.0751e-05
2.86091e-05
6.87511e-05
2.89519e-05
6.904e-05
7.94436e-05
7.85138e-05
2.861e-05
6.87539e-05
2.89522e-05
6.90437e-05
2.76349e-05
2.76348e-05
2.76349e-05
2.66486e-05
2.66485e-05
2.66484e-05
2.66485e-05
2.47454e-05
2.73909e-05
2.7428e-05
2.66121e-05
2.54084e-05
2.71773e-05
2.70736e-05
7.94428e-05
7.85148e-05
2.47455e-05
2.74279e-05
2.73912e-05
2.6612e-05
2.54079e-05
2.70735e-05
2.71783e-05
3.1575e-05
3.1575e-05
2.58524e-05
3.2077e-05
3.20785e-05
2.80645e-05
6.92598e-05
2.82499e-05
6.93212e-05
7.70129e-05
7.6267e-05
2.80653e-05
6.92633e-05
2.82501e-05
6.93246e-05
2.63306e-05
2.63305e-05
2.63305e-05
2.54078e-05
2.54078e-05
2.54076e-05
2.54077e-05
2.31664e-05
2.69895e-05
2.60439e-05
2.51837e-05
2.37396e-05
2.69106e-05
2.57116e-05
7.70122e-05
7.62681e-05
2.31666e-05
2.60438e-05
2.69898e-05
2.51835e-05
2.37391e-05
2.57114e-05
2.69114e-05
3.32041e-05
3.32036e-05
2.43218e-05
3.38749e-05
3.3878e-05
2.79206e-05
6.93141e-05
2.79341e-05
6.92872e-05
7.50799e-05
7.45157e-05
2.79209e-05
6.93176e-05
2.79342e-05
6.92906e-05
2.51109e-05
2.51108e-05
2.51109e-05
2.42486e-05
2.42485e-05
2.42484e-05
2.42484e-05
2.18496e-05
2.69254e-05
2.4748e-05
2.38659e-05
2.233e-05
2.69739e-05
2.44385e-05
7.50792e-05
7.4517e-05
2.18499e-05
2.47479e-05
2.69253e-05
2.38657e-05
2.23295e-05
2.44383e-05
2.69746e-05
3.52e-05
3.52007e-05
2.29448e-05
3.59908e-05
3.59953e-05
2.81664e-05
6.92156e-05
2.80396e-05
6.91831e-05
7.36109e-05
7.31991e-05
2.81667e-05
6.92191e-05
2.80392e-05
6.91867e-05
2.39697e-05
2.39695e-05
2.39696e-05
2.31658e-05
2.31657e-05
2.31655e-05
2.31656e-05
2.08028e-05
2.71934e-05
2.35395e-05
2.26583e-05
2.11896e-05
2.73488e-05
2.32504e-05
7.36099e-05
7.32006e-05
2.08031e-05
2.35393e-05
2.71936e-05
2.26581e-05
2.1189e-05
2.32502e-05
2.73498e-05
3.74516e-05
3.7454e-05
2.17236e-05
3.83067e-05
3.83122e-05
2.88297e-05
6.91346e-05
2.85633e-05
6.91228e-05
7.25288e-05
7.22391e-05
2.883e-05
6.91384e-05
2.85629e-05
6.91268e-05
2.29077e-05
2.29075e-05
2.29076e-05
2.21513e-05
2.21511e-05
2.21509e-05
2.2151e-05
2.00278e-05
2.77737e-05
2.2418e-05
2.15651e-05
2.03165e-05
2.8029e-05
2.21507e-05
7.25278e-05
7.22404e-05
2.00278e-05
2.24179e-05
2.77741e-05
2.15649e-05
2.03162e-05
2.21505e-05
2.80301e-05
3.98366e-05
3.98415e-05
2.06555e-05
4.07199e-05
4.07259e-05
2.98923e-05
6.91172e-05
2.94995e-05
6.91193e-05
7.17446e-05
7.15601e-05
2.98927e-05
6.91213e-05
2.94992e-05
6.91236e-05
2.19062e-05
2.1906e-05
2.19061e-05
2.12161e-05
2.12159e-05
2.12157e-05
2.12158e-05
1.95168e-05
2.86359e-05
2.13715e-05
2.05697e-05
1.97016e-05
2.89691e-05
2.11244e-05
7.17444e-05
7.15602e-05
1.95169e-05
2.13714e-05
2.86368e-05
2.05694e-05
1.97015e-05
2.11242e-05
2.89706e-05
4.22596e-05
4.22662e-05
1.97259e-05
4.31156e-05
4.31245e-05
3.13238e-05
6.90895e-05
3.08126e-05
6.90723e-05
7.13059e-05
7.12281e-05
3.13278e-05
6.90946e-05
3.08099e-05
6.90776e-05
2.09982e-05
2.0998e-05
2.09982e-05
2.03338e-05
2.03335e-05
2.03333e-05
2.03334e-05
1.92641e-05
2.96801e-05
2.04299e-05
1.97034e-05
1.93415e-05
3.00135e-05
2.02084e-05
7.13066e-05
7.12284e-05
1.92643e-05
2.04297e-05
2.96815e-05
1.97032e-05
1.93414e-05
2.02082e-05
3.00151e-05
4.44627e-05
4.44716e-05
1.89444e-05
4.51242e-05
4.51351e-05
3.24965e-05
6.90181e-05
3.22051e-05
6.89867e-05
7.11384e-05
7.11333e-05
3.24948e-05
6.9024e-05
3.22008e-05
6.89917e-05
2.01044e-05
2.01042e-05
2.01043e-05
1.94698e-05
1.94696e-05
1.94694e-05
1.94695e-05
1.91172e-05
3.06043e-05
1.95287e-05
1.88654e-05
1.91953e-05
3.08019e-05
1.93038e-05
7.11387e-05
7.11336e-05
1.91167e-05
1.95285e-05
3.06049e-05
1.88651e-05
1.91946e-05
1.93036e-05
3.08028e-05
4.60356e-05
4.60459e-05
1.82365e-05
4.63263e-05
4.63363e-05
3.3091e-05
6.89629e-05
3.29304e-05
6.89609e-05
7.11411e-05
7.11596e-05
3.30948e-05
6.89673e-05
3.29333e-05
6.89648e-05
1.93017e-05
1.93014e-05
1.93016e-05
1.89807e-05
1.89807e-05
1.89805e-05
1.89805e-05
1.9078e-05
3.10672e-05
1.87371e-05
1.82447e-05
1.90646e-05
3.11758e-05
1.86085e-05
7.11399e-05
7.11572e-05
1.90789e-05
1.8737e-05
3.10683e-05
1.82446e-05
1.90653e-05
1.86083e-05
3.11789e-05
4.66819e-05
4.6691e-05
1.77318e-05
4.67985e-05
4.6808e-05
3.33861e-05
6.8969e-05
3.33185e-05
6.8968e-05
7.11749e-05
7.11847e-05
3.33889e-05
6.89739e-05
3.33218e-05
6.89734e-05
1.89268e-05
1.89266e-05
1.89266e-05
1.88589e-05
1.88588e-05
1.88586e-05
1.88587e-05
1.92565e-05
3.14165e-05
1.84008e-05
1.81068e-05
1.91909e-05
3.15081e-05
1.83773e-05
7.1172e-05
7.11816e-05
1.92576e-05
1.84008e-05
3.14189e-05
1.81067e-05
1.91921e-05
1.83773e-05
3.15102e-05
4.69637e-05
4.69728e-05
1.77015e-05
4.70251e-05
4.70348e-05
3.34291e-05
6.8966e-05
3.34348e-05
6.89639e-05
7.11818e-05
7.1185e-05
3.34341e-05
6.89715e-05
3.34399e-05
6.8969e-05
1.88554e-05
1.88552e-05
1.88554e-05
1.88564e-05
1.88556e-05
1.88553e-05
1.88556e-05
1.93788e-05
3.16015e-05
1.83639e-05
1.81333e-05
1.93588e-05
3.1601e-05
1.83659e-05
7.1178e-05
7.11812e-05
1.93803e-05
1.83638e-05
3.16057e-05
1.81333e-05
1.93602e-05
1.83659e-05
3.16053e-05
4.70351e-05
4.70449e-05
1.77859e-05
4.70272e-05
4.7037e-05
3.3434e-05
6.89641e-05
3.34361e-05
6.89636e-05
7.11814e-05
7.11854e-05
3.34382e-05
6.89695e-05
3.34401e-05
6.89689e-05
1.88571e-05
1.88569e-05
1.88572e-05
1.88605e-05
1.88602e-05
1.886e-05
1.88603e-05
1.94079e-05
3.16188e-05
1.83727e-05
1.81567e-05
1.94033e-05
3.1614e-05
1.83767e-05
7.11774e-05
7.11815e-05
1.9409e-05
1.83727e-05
3.16224e-05
1.81567e-05
1.94044e-05
1.83767e-05
3.16177e-05
4.7029e-05
4.70388e-05
1.78187e-05
4.70252e-05
4.70349e-05
3.34414e-05
6.89652e-05
3.34436e-05
6.89648e-05
7.11824e-05
7.11858e-05
3.34455e-05
6.89707e-05
3.34474e-05
6.89702e-05
1.88615e-05
1.88613e-05
1.88616e-05
1.88635e-05
1.88635e-05
1.88633e-05
1.88637e-05
1.94235e-05
3.16283e-05
1.83816e-05
1.81662e-05
1.94218e-05
3.16219e-05
1.83838e-05
7.11784e-05
7.11825e-05
1.94245e-05
1.83816e-05
3.16314e-05
1.81662e-05
1.94227e-05
1.83837e-05
3.16252e-05
4.7031e-05
4.70403e-05
1.78332e-05
4.70278e-05
4.70372e-05
3.34459e-05
6.89661e-05
3.34494e-05
6.89655e-05
7.11825e-05
7.11863e-05
3.34503e-05
6.89718e-05
3.34533e-05
6.8971e-05
1.88645e-05
1.88642e-05
1.88646e-05
1.88656e-05
1.88659e-05
1.88656e-05
1.8866e-05
1.94314e-05
3.16339e-05
1.83859e-05
1.81708e-05
1.94318e-05
3.16262e-05
1.83872e-05
7.11792e-05
7.11831e-05
1.94326e-05
1.83858e-05
3.16369e-05
1.81708e-05
1.94329e-05
1.83872e-05
3.16296e-05
4.70333e-05
4.70427e-05
1.78403e-05
4.70294e-05
4.7039e-05
3.34476e-05
6.89665e-05
3.3452e-05
6.89658e-05
7.11832e-05
7.11868e-05
3.34521e-05
6.89721e-05
3.34562e-05
6.89711e-05
1.88667e-05
1.88665e-05
1.88669e-05
1.88672e-05
1.88679e-05
1.88676e-05
1.8868e-05
1.94353e-05
3.16365e-05
1.83882e-05
1.81737e-05
1.94368e-05
3.16281e-05
1.83892e-05
7.11795e-05
7.11833e-05
1.94366e-05
1.83882e-05
3.16396e-05
1.81737e-05
1.94381e-05
1.83892e-05
3.16316e-05
4.70342e-05
4.70438e-05
1.78446e-05
4.703e-05
4.70397e-05
3.34479e-05
6.89667e-05
3.34528e-05
6.89657e-05
7.11831e-05
7.11864e-05
3.34525e-05
6.89721e-05
3.3457e-05
6.89715e-05
1.88689e-05
1.88687e-05
1.88691e-05
1.88685e-05
1.88695e-05
1.88693e-05
1.88697e-05
1.94365e-05
3.16375e-05
1.83898e-05
1.81755e-05
1.94389e-05
3.16287e-05
1.83906e-05
7.11796e-05
7.11834e-05
1.94378e-05
1.83898e-05
3.16407e-05
1.81755e-05
1.94402e-05
1.83906e-05
3.16323e-05
4.70344e-05
4.70441e-05
1.78465e-05
4.70302e-05
4.70399e-05
3.3448e-05
6.89662e-05
3.34529e-05
6.8965e-05
7.1183e-05
7.11865e-05
3.34526e-05
6.89728e-05
3.34571e-05
6.89721e-05
1.88706e-05
1.88704e-05
1.88707e-05
1.88696e-05
1.88704e-05
1.88702e-05
1.88704e-05
1.94368e-05
3.16378e-05
1.8391e-05
1.81767e-05
1.94394e-05
3.16289e-05
1.83917e-05
7.11797e-05
7.11834e-05
1.9438e-05
1.8391e-05
3.1641e-05
1.81767e-05
1.94406e-05
1.83917e-05
3.16325e-05
4.70345e-05
4.70442e-05
1.78471e-05
4.70302e-05
4.70399e-05
3.34481e-05
6.89656e-05
3.34529e-05
6.89645e-05
7.11831e-05
7.11866e-05
3.34526e-05
6.89733e-05
3.34571e-05
6.89726e-05
1.8871e-05
1.88707e-05
1.8871e-05
1.88696e-05
1.88705e-05
1.88703e-05
1.88704e-05
1.94368e-05
3.16379e-05
1.8392e-05
1.81777e-05
1.94394e-05
3.1629e-05
1.83927e-05
7.11797e-05
7.11834e-05
1.94381e-05
1.8392e-05
3.16411e-05
1.81777e-05
1.94407e-05
1.83927e-05
3.16325e-05
4.70345e-05
4.70442e-05
1.78471e-05
4.70302e-05
4.70399e-05
3.34481e-05
6.89653e-05
3.3453e-05
6.89642e-05
7.11831e-05
7.11866e-05
3.34526e-05
6.89737e-05
3.34572e-05
6.8973e-05
1.8871e-05
1.88708e-05
1.8871e-05
1.88697e-05
1.88705e-05
1.88702e-05
1.88704e-05
1.94368e-05
3.16379e-05
1.83921e-05
1.81782e-05
1.94395e-05
3.1629e-05
1.83927e-05
7.11797e-05
7.11834e-05
1.94381e-05
1.83921e-05
3.16411e-05
1.81782e-05
1.94407e-05
1.83927e-05
3.16325e-05
4.70346e-05
4.70443e-05
1.78473e-05
4.70303e-05
4.704e-05
3.3448e-05
6.8965e-05
3.34529e-05
6.89639e-05
7.11832e-05
7.11867e-05
3.34526e-05
6.8974e-05
3.34572e-05
6.89732e-05
1.8871e-05
1.88708e-05
1.8871e-05
1.88697e-05
1.88705e-05
1.88703e-05
1.88704e-05
1.94369e-05
3.16379e-05
1.83921e-05
1.81782e-05
1.94395e-05
3.1629e-05
1.83927e-05
7.11797e-05
7.11834e-05
1.94381e-05
1.83921e-05
3.16411e-05
1.81782e-05
1.94407e-05
1.83927e-05
3.16325e-05
4.70344e-05
4.70442e-05
1.78472e-05
4.70302e-05
4.70399e-05
3.3448e-05
6.89648e-05
3.34529e-05
6.89638e-05
7.11832e-05
7.11867e-05
3.34526e-05
6.89742e-05
3.34572e-05
6.89734e-05
1.8871e-05
1.88708e-05
1.8871e-05
1.88697e-05
1.88705e-05
1.88703e-05
1.88704e-05
1.94368e-05
3.1638e-05
1.83921e-05
1.81782e-05
1.94395e-05
3.1629e-05
1.83927e-05
7.11796e-05
7.11834e-05
1.94381e-05
1.83921e-05
3.16411e-05
1.81782e-05
1.94407e-05
1.83927e-05
3.16326e-05
4.70345e-05
4.70442e-05
1.78471e-05
4.70302e-05
4.70399e-05
3.34481e-05
6.89646e-05
3.34529e-05
6.89637e-05
7.11832e-05
7.11867e-05
3.34526e-05
6.89742e-05
3.34572e-05
6.89734e-05
1.8871e-05
1.88708e-05
1.8871e-05
1.88697e-05
1.88705e-05
1.88703e-05
1.88704e-05
1.94368e-05
3.1638e-05
1.83921e-05
1.81782e-05
1.94395e-05
3.1629e-05
1.83927e-05
7.11796e-05
7.11834e-05
1.94381e-05
1.83921e-05
3.16411e-05
1.81782e-05
1.94407e-05
1.83927e-05
3.16325e-05
4.70345e-05
4.70442e-05
1.78471e-05
4.70302e-05
4.70399e-05
3.3448e-05
6.89646e-05
3.34529e-05
6.89636e-05
7.11832e-05
7.11867e-05
3.34526e-05
6.89743e-05
3.34572e-05
6.89734e-05
1.8871e-05
1.88708e-05
1.8871e-05
1.88697e-05
1.88705e-05
1.88702e-05
1.88704e-05
1.94368e-05
3.1638e-05
1.83921e-05
1.81782e-05
1.94395e-05
3.1629e-05
1.83927e-05
7.11797e-05
7.11834e-05
1.94381e-05
1.83921e-05
3.16411e-05
1.81781e-05
1.94407e-05
1.83927e-05
3.16325e-05
4.70344e-05
4.70441e-05
1.78472e-05
4.70302e-05
4.70399e-05
3.34481e-05
6.89645e-05
3.3453e-05
6.89635e-05
7.11832e-05
7.11867e-05
3.34526e-05
6.89743e-05
3.34572e-05
6.89735e-05
1.8871e-05
1.88708e-05
1.8871e-05
1.88697e-05
1.88705e-05
1.88702e-05
1.88704e-05
1.94368e-05
3.1638e-05
1.83921e-05
1.81782e-05
1.94395e-05
3.16291e-05
1.83927e-05
7.11797e-05
7.11835e-05
1.94381e-05
1.83921e-05
3.16411e-05
1.81781e-05
1.94407e-05
1.83927e-05
3.16325e-05
4.70345e-05
4.70442e-05
1.78472e-05
4.70302e-05
4.70399e-05
3.3449e-05
6.89645e-05
3.3453e-05
6.89635e-05
7.11831e-05
7.11836e-05
3.34527e-05
6.89743e-05
3.34572e-05
6.89734e-05
1.8871e-05
1.88706e-05
1.88708e-05
1.94368e-05
3.1638e-05
1.83921e-05
1.8178e-05
1.94395e-05
3.16337e-05
1.83926e-05
7.11796e-05
1.83925e-05
3.16412e-05
1.94407e-05
4.70344e-05
4.70441e-05
3.73741e-05
3.72959e-05
3.72959e-05
5.31145e-05
3.71931e-05
5.31164e-05
3.71931e-05
3.7093e-05
3.72474e-05
3.72486e-05
3.71762e-05
3.71762e-05
3.73701e-05
3.73777e-05
3.73044e-05
3.73768e-05
3.73701e-05
3.73777e-05
3.73044e-05
3.73768e-05
3.71731e-05
3.94118e-05
3.71676e-05
3.67257e-05
3.71731e-05
3.94117e-05
3.71676e-05
3.67258e-05
3.70958e-05
3.71022e-05
3.60214e-05
3.64211e-05
3.71634e-05
3.71109e-05
3.63055e-05
3.70958e-05
3.71022e-05
3.60218e-05
3.64211e-05
3.71634e-05
3.71109e-05
3.63055e-05
3.73741e-05
3.72959e-05
3.72959e-05
5.31146e-05
3.71931e-05
3.7093e-05
3.72491e-05
3.72468e-05
3.71762e-05
3.71762e-05
5.31162e-05
3.71932e-05
3.73702e-05
3.73777e-05
3.73044e-05
3.73768e-05
3.73701e-05
3.73777e-05
3.73768e-05
3.73044e-05
3.71731e-05
3.94122e-05
3.71676e-05
3.6726e-05
3.70958e-05
3.71022e-05
3.60215e-05
3.64211e-05
3.71634e-05
3.71109e-05
3.63056e-05
3.71731e-05
3.94125e-05
3.71676e-05
3.67257e-05
3.70958e-05
3.71022e-05
3.64211e-05
3.60215e-05
3.71109e-05
3.71634e-05
3.63055e-05
3.73773e-05
3.73765e-05
3.7377e-05
3.7377e-05
3.73773e-05
3.73765e-05
3.7377e-05
3.7377e-05
3.73773e-05
3.73765e-05
3.7377e-05
3.7377e-05
3.71133e-05
3.71099e-05
3.64241e-05
3.64241e-05
3.71125e-05
3.71125e-05
3.64261e-05
3.71133e-05
3.71099e-05
3.64241e-05
3.64241e-05
3.71125e-05
3.71125e-05
3.64261e-05
3.71133e-05
3.71099e-05
3.64241e-05
3.64241e-05
3.71125e-05
3.71125e-05
3.64261e-05
3.71133e-05
3.71099e-05
3.64241e-05
3.64241e-05
3.71125e-05
3.71125e-05
3.64261e-05
3.73701e-05
3.73777e-05
3.73768e-05
3.73044e-05
3.70958e-05
3.71022e-05
3.60212e-05
3.64211e-05
3.71634e-05
3.71109e-05
3.63055e-05
3.71731e-05
3.9412e-05
3.71676e-05
3.67259e-05
3.70958e-05
3.71022e-05
3.64211e-05
3.60219e-05
3.71109e-05
3.71634e-05
3.63055e-05
3.71731e-05
3.94125e-05
3.71676e-05
3.67256e-05
3.73741e-05
3.72959e-05
3.72959e-05
5.31168e-05
3.71931e-05
3.7093e-05
3.72477e-05
3.72488e-05
3.71762e-05
3.71762e-05
5.3117e-05
3.71931e-05
3.73702e-05
3.73777e-05
3.73768e-05
3.73044e-05
3.70958e-05
3.71022e-05
3.64211e-05
3.60218e-05
3.71109e-05
3.71634e-05
3.63056e-05
3.70958e-05
3.71022e-05
3.64211e-05
3.60218e-05
3.71109e-05
3.71634e-05
3.63056e-05
3.71731e-05
3.94124e-05
3.71676e-05
3.67257e-05
3.71731e-05
3.94124e-05
3.71676e-05
3.6726e-05
3.7093e-05
3.72487e-05
3.72492e-05
3.71762e-05
3.71762e-05
5.31167e-05
3.71931e-05
5.31167e-05
3.71931e-05
5.51074e-05
6.48939e-05
5.51092e-05
6.48969e-05
3.65889e-05
3.65889e-05
3.52792e-05
3.40771e-05
3.40775e-05
7.47268e-05
6.76895e-05
7.47307e-05
6.76933e-05
3.49731e-05
3.20393e-05
3.20393e-05
3.34657e-05
3.34647e-05
3.58864e-05
4.08666e-05
3.66022e-05
4.51345e-05
3.5276e-05
3.56351e-05
3.58928e-05
3.53772e-05
3.60471e-05
3.42298e-05
3.53823e-05
3.5276e-05
3.56346e-05
3.58928e-05
3.53772e-05
3.60471e-05
3.42307e-05
3.53823e-05
3.56363e-05
5.02011e-05
4.64514e-05
3.48943e-05
3.56367e-05
5.02e-05
4.64512e-05
3.48948e-05
3.49991e-05
3.48728e-05
3.27125e-05
3.4402e-05
3.38538e-05
3.4886e-05
3.41799e-05
3.49991e-05
3.48728e-05
3.27135e-05
3.4402e-05
3.38528e-05
3.48859e-05
3.418e-05
3.6588e-05
3.65901e-05
3.52792e-05
3.40786e-05
3.4075e-05
5.51086e-05
6.48964e-05
7.47274e-05
6.7692e-05
3.49731e-05
3.20404e-05
3.20368e-05
3.34638e-05
3.34674e-05
7.47295e-05
6.7691e-05
3.52762e-05
3.56349e-05
3.58928e-05
3.53772e-05
3.6047e-05
3.42299e-05
3.53823e-05
3.58867e-05
4.08673e-05
3.66017e-05
4.51374e-05
3.52761e-05
3.58928e-05
3.56351e-05
3.53772e-05
3.6047e-05
3.53823e-05
3.42297e-05
3.5636e-05
5.0201e-05
4.6451e-05
3.48955e-05
3.4999e-05
3.48728e-05
3.27124e-05
3.4402e-05
3.3853e-05
3.4886e-05
3.41802e-05
3.5636e-05
5.0203e-05
4.64527e-05
3.4895e-05
3.4999e-05
3.48728e-05
3.4402e-05
3.27122e-05
3.4886e-05
3.38535e-05
3.418e-05
3.58866e-05
4.08651e-05
3.66021e-05
4.51366e-05
3.5276e-05
3.58928e-05
3.56347e-05
3.53772e-05
3.6047e-05
3.53823e-05
3.42307e-05
3.58866e-05
4.08682e-05
3.66017e-05
4.51362e-05
3.49991e-05
3.48728e-05
3.27116e-05
3.44021e-05
3.38535e-05
3.48859e-05
3.41801e-05
3.56365e-05
5.02007e-05
4.64489e-05
3.48948e-05
3.49991e-05
3.48728e-05
3.4402e-05
3.27134e-05
3.4886e-05
3.38526e-05
3.41799e-05
3.56361e-05
5.02014e-05
4.64534e-05
3.48947e-05
3.65893e-05
3.65879e-05
3.52792e-05
3.40761e-05
3.4078e-05
5.51096e-05
6.48955e-05
7.47319e-05
6.76925e-05
3.49731e-05
3.20377e-05
3.20411e-05
3.34658e-05
3.34642e-05
7.4729e-05
6.76934e-05
3.52762e-05
3.58928e-05
3.56347e-05
3.53772e-05
3.6047e-05
3.53823e-05
3.42305e-05
3.58873e-05
4.08675e-05
3.66016e-05
4.51367e-05
3.58876e-05
4.08666e-05
3.66019e-05
4.51356e-05
3.49989e-05
3.48728e-05
3.4402e-05
3.27133e-05
3.4886e-05
3.38529e-05
3.41801e-05
3.4999e-05
3.48728e-05
3.4402e-05
3.27132e-05
3.4886e-05
3.38524e-05
3.41802e-05
3.56353e-05
5.02023e-05
4.64531e-05
3.48953e-05
3.56355e-05
5.02018e-05
4.6451e-05
3.48956e-05
5.51091e-05
6.48954e-05
5.51092e-05
6.4896e-05
3.49731e-05
3.20409e-05
3.20396e-05
3.34636e-05
3.34639e-05
7.4728e-05
6.76927e-05
7.47296e-05
6.76942e-05
7.6553e-05
8.08559e-05
7.65571e-05
8.08602e-05
3.17136e-05
3.17113e-05
3.32641e-05
3.09235e-05
3.09237e-05
8.40028e-05
8.18567e-05
8.40065e-05
8.18601e-05
3.29546e-05
3.03057e-05
3.0306e-05
3.07428e-05
3.07392e-05
3.39703e-05
5.13502e-05
3.46775e-05
5.46109e-05
3.30539e-05
3.24557e-05
3.39297e-05
3.34086e-05
3.38951e-05
3.15565e-05
3.34679e-05
3.30542e-05
3.24544e-05
3.39297e-05
3.34085e-05
3.38952e-05
3.15578e-05
3.34679e-05
3.37802e-05
5.83557e-05
5.55949e-05
3.30871e-05
3.37803e-05
5.8356e-05
5.55943e-05
3.30876e-05
3.27679e-05
3.29351e-05
3.06297e-05
3.25726e-05
3.13729e-05
3.30159e-05
3.19182e-05
3.2768e-05
3.2935e-05
3.06305e-05
3.25726e-05
3.13712e-05
3.30159e-05
3.19184e-05
3.17109e-05
3.17147e-05
3.32641e-05
3.09248e-05
3.09201e-05
7.65545e-05
8.08581e-05
8.40036e-05
8.18587e-05
3.29546e-05
3.03068e-05
3.0303e-05
3.07395e-05
3.07437e-05
8.40048e-05
8.1858e-05
3.30544e-05
3.24548e-05
3.39297e-05
3.34086e-05
3.38949e-05
3.15569e-05
3.34679e-05
3.39718e-05
5.13522e-05
3.46769e-05
5.46142e-05
3.30542e-05
3.39297e-05
3.24555e-05
3.34085e-05
3.38949e-05
3.34679e-05
3.1556e-05
3.37781e-05
5.83567e-05
5.55962e-05
3.309e-05
3.27677e-05
3.29351e-05
3.06295e-05
3.25726e-05
3.13713e-05
3.30159e-05
3.19186e-05
3.3778e-05
5.83593e-05
5.55965e-05
3.30895e-05
3.27676e-05
3.2935e-05
3.25726e-05
3.0629e-05
3.30158e-05
3.13727e-05
3.19184e-05
3.39707e-05
5.13492e-05
3.46774e-05
5.46111e-05
3.3054e-05
3.39297e-05
3.24547e-05
3.34086e-05
3.38951e-05
3.34679e-05
3.15581e-05
3.397e-05
5.13521e-05
3.46775e-05
5.46121e-05
3.27681e-05
3.29352e-05
3.06289e-05
3.25727e-05
3.13725e-05
3.30159e-05
3.19184e-05
3.37798e-05
5.83564e-05
5.55935e-05
3.30877e-05
3.27679e-05