/*--------------------------------*- C++ -*----------------------------------*\
| =========                 |                                                 |
| \\      /  F ield         | OpenFOAM: The Open Source CFD Toolbox           |
|  \\    /   O peration     | Version:  v1912                                 |
|   \\  /    A nd           | Website:  www.openfoam.com                      |
|    \\/     M anipulation  |                                                 |
\*---------------------------------------------------------------------------*/
FoamFile
{
    version     2.0;
    format      ascii;
    class       volScalarField;
    location    "60";
    object      nut;
}
// * * * * * * * * * * * * * * * * * * * * * * * * * * * * * * * * * * * * * //

dimensions      [0 2 -1 0 0 0 0];


internalField   nonuniform List<scalar> 
57100
(
0.000233973
0.000233114
0.000233114
0.000233424
0.000232531
0.000227796
0.000227795
0.000223862
0.000230513
0.000220312
0.000220309
0.000209104
0.000227795
0.000211659
0.000211654
0.000193789
0.000224428
0.000202645
0.00020264
0.000179721
0.000220547
0.00019377
0.000193763
0.000167362
0.000216301
0.000185275
0.000185267
0.000156617
0.000211816
0.00017723
0.000177222
0.00014724
0.000207196
0.000169679
0.00016967
0.000138991
0.000202558
0.000162627
0.000162618
0.000131665
0.00019786
0.00015595
0.00015594
0.000125014
0.000193427
0.000149934
0.000149925
0.00011912
0.000189018
0.000144726
0.000144714
0.000114343
0.000185769
0.000141214
0.000141202
0.000111293
0.000185107
0.00014057
0.000140559
0.000110902
0.00018555
0.000140889
0.000140878
0.0001114
0.000185756
0.000141171
0.00014116
0.000111739
0.000185814
0.000141265
0.000141254
0.000111872
0.000185849
0.000141302
0.000141291
0.000111926
0.00018587
0.000141324
0.000141313
0.000111961
0.000185887
0.00014134
0.000141329
0.000111978
0.000185909
0.000141349
0.000141339
0.000111985
0.000185927
0.00014136
0.00014135
0.000111988
0.000185926
0.00014137
0.000141359
0.000111988
0.000185927
0.00014137
0.000141359
0.000111987
0.000185927
0.00014137
0.00014136
0.000111987
0.000185927
0.00014137
0.00014136
0.000111987
0.000185927
0.00014137
0.000141359
0.000111988
0.000185928
0.000141369
0.000141359
0.000111987
0.000185928
0.000141369
0.000141361
0.000111987
0.000234266
0.000234448
0.000234449
0.000234266
0.000234449
0.000234449
0.000234274
0.000234274
0.000234274
0.000234274
0.000234448
0.000234448
0.000234265
0.000234448
0.000234449
0.000234266
0.000233424
0.000226205
0.000233114
0.000233112
0.000229354
0.000229349
0.000233424
0.000226206
0.000233112
0.000233111
0.000229351
0.000229348
0.000233113
0.000229356
0.000229353
0.000233425
0.000226203
0.000233112
0.000229356
0.000229351
0.000226203
0.000223862
0.000212237
0.000227792
0.000227787
0.000222323
0.000222318
0.000223863
0.000212241
0.00022779
0.000227786
0.000222323
0.000222315
0.000227791
0.00022233
0.000222322
0.000223861
0.000212234
0.00022779
0.000222327
0.000222322
0.000212235
0.000209107
0.000197073
0.000220304
0.000220299
0.000213872
0.000213867
0.000209108
0.000197078
0.000220305
0.000220295
0.000213876
0.000213862
0.000220302
0.000213883
0.00021387
0.000209103
0.000197069
0.000220304
0.000213879
0.000213875
0.00019707
0.000193793
0.000182896
0.000211647
0.000211641
0.000204885
0.00020488
0.000193796
0.000182902
0.000211652
0.000211636
0.000204893
0.000204874
0.000211644
0.0002049
0.000204882
0.000193789
0.000182892
0.000211651
0.000204894
0.000204892
0.000182892
0.000179725
0.000170292
0.000202629
0.000202624
0.000195941
0.000195935
0.00017973
0.000170298
0.000202638
0.000202618
0.000195952
0.000195929
0.000202627
0.00019596
0.000195938
0.000179721
0.000170287
0.000202637
0.000195953
0.000195951
0.000170288
0.000167367
0.000159274
0.00019375
0.000193745
0.000187336
0.000187331
0.000167372
0.00015928
0.000193763
0.000193738
0.000187351
0.000187323
0.000193747
0.000187358
0.000187333
0.000167362
0.000159269
0.000193761
0.00018735
0.00018735
0.000159269
0.000156622
0.000149649
0.000185253
0.000185247
0.000179168
0.000179163
0.000156627
0.000149656
0.000185268
0.00018524
0.000179186
0.000179155
0.000185249
0.000179194
0.000179165
0.000156617
0.000149644
0.000185267
0.000179185
0.000179185
0.000149644
0.000147246
0.000141151
0.000177205
0.0001772
0.000171501
0.000171495
0.000147251
0.000141157
0.000177224
0.000177192
0.000171521
0.000171487
0.000177202
0.000171528
0.000171498
0.000147241
0.000141145
0.000177223
0.000171519
0.00017152
0.000141145
0.000138997
0.000133595
0.000169651
0.000169646
0.000164316
0.00016431
0.000139002
0.000133601
0.000169672
0.000169638
0.000164339
0.000164302
0.000169649
0.000164347
0.000164314
0.000138991
0.000133588
0.000169672
0.000164338
0.000164338
0.000133588
0.000131671
0.00012675
0.000162597
0.000162592
0.000157541
0.000157535
0.000131677
0.000126757
0.000162621
0.000162583
0.000157567
0.000157528
0.000162595
0.000157574
0.00015754
0.000131665
0.000126744
0.00016262
0.000157565
0.000157566
0.000126744
0.000125021
0.000120618
0.000155917
0.000155912
0.000151328
0.000151323
0.000125026
0.000120625
0.000155943
0.000155904
0.000151356
0.000151315
0.000155917
0.000151365
0.000151328
0.000125014
0.000120611
0.000155943
0.000151355
0.000151355
0.000120611
0.000119128
0.000115629
0.0001499
0.000149896
0.0001459
0.000145893
0.000119133
0.000115635
0.000149928
0.000149887
0.000145927
0.000145885
0.000149901
0.000145938
0.0001459
0.000119121
0.000115622
0.000149928
0.000145926
0.000145928
0.000115621
0.000114352
0.000112121
0.000144691
0.000144685
0.0001418
0.000141792
0.000114358
0.000112128
0.000144718
0.000144676
0.000141825
0.000141783
0.000144692
0.000141835
0.000141799
0.000114345
0.000112114
0.00014472
0.000141823
0.000141827
0.000112112
0.000111303
0.000111068
0.000141183
0.000141174
0.000140483
0.000140474
0.000111307
0.000111072
0.000141208
0.000141165
0.000140507
0.000140466
0.000141181
0.000140518
0.000140484
0.000111295
0.000111059
0.000141209
0.000140507
0.000140511
0.000111062
0.000110916
0.000111598
0.000140536
0.000140527
0.000140724
0.000140714
0.00011092
0.000111603
0.000140559
0.000140519
0.000140747
0.000140706
0.000140537
0.000140762
0.000140724
0.000110907
0.00011159
0.000140565
0.00014075
0.000140752
0.000111587
0.000111407
0.000111926
0.000140871
0.00014086
0.000141102
0.00014109
0.000111412
0.000111928
0.000140894
0.000140852
0.000141126
0.000141081
0.00014087
0.000141135
0.000141103
0.000111399
0.000111915
0.000140898
0.000141124
0.000141131
0.000111922
0.00011174
0.000112049
0.000141148
0.000141136
0.000141219
0.00014121
0.000111742
0.000112052
0.000141172
0.000141128
0.000141244
0.0001412
0.000141149
0.000141254
0.000141223
0.000111729
0.000112038
0.000141177
0.000141243
0.000141251
0.000112053
0.000111866
0.000112105
0.000141235
0.000141227
0.00014126
0.000141254
0.000111869
0.000112109
0.000141259
0.000141217
0.000141285
0.000141243
0.00014124
0.000141298
0.000141267
0.000111856
0.000112095
0.000141268
0.000141287
0.000141295
0.000112109
0.000111926
0.000112137
0.000141269
0.000141264
0.000141282
0.000141278
0.000111928
0.000112141
0.000141294
0.000141253
0.000141307
0.000141267
0.000141277
0.000141321
0.000141292
0.000111915
0.000112128
0.000141305
0.00014131
0.00014132
0.000112144
0.000111958
0.000112158
0.000141289
0.000141285
0.0001413
0.000141295
0.000111962
0.000112163
0.000141314
0.000141275
0.000141325
0.000141286
0.000141298
0.000141338
0.000141309
0.00011195
0.000112149
0.000141326
0.000141327
0.000141337
0.000112164
0.000111979
0.000112163
0.000141305
0.0001413
0.000141315
0.000141309
0.000111985
0.000112166
0.000141329
0.000141291
0.000141339
0.0001413
0.000141314
0.000141348
0.000141324
0.000111972
0.000112152
0.000141342
0.000141337
0.000141352
0.000112171
0.000111986
0.000112173
0.000141322
0.000141316
0.000141336
0.000141328
0.00011199
0.000112176
0.000141346
0.000141307
0.00014136
0.00014132
0.000141333
0.000141357
0.000141344
0.000111977
0.000112161
0.000141361
0.000141347
0.000141372
0.000112174
0.000111996
0.000112172
0.000141347
0.000141338
0.000141344
0.000141336
0.000112
0.000112176
0.00014137
0.00014133
0.000141368
0.000141328
0.000141352
0.00014137
0.000141345
0.000111986
0.000112162
0.00014138
0.000141359
0.000141372
0.000112175
0.000111997
0.000112172
0.000141348
0.000141339
0.000141344
0.000141336
0.000112
0.000112176
0.000141372
0.000141331
0.000141368
0.000141328
0.000141349
0.00014137
0.000141346
0.000111986
0.000112162
0.000141373
0.00014136
0.00014137
0.000112174
0.000111996
0.000112172
0.000141348
0.000141339
0.000141345
0.000141336
0.000112
0.000112177
0.000141372
0.000141331
0.000141368
0.000141328
0.000141349
0.00014137
0.000141346
0.000111987
0.000112162
0.000141374
0.00014136
0.00014137
0.000112174
0.000111997
0.000112173
0.000141348
0.000141339
0.000141345
0.000141336
0.000112
0.000112177
0.000141372
0.000141331
0.000141369
0.000141328
0.000141349
0.00014137
0.000141345
0.000111987
0.000112162
0.000141374
0.00014136
0.00014137
0.000112173
0.000111997
0.000112172
0.000141349
0.000141339
0.000141345
0.000141336
0.000112
0.000112176
0.000141372
0.000141332
0.000141369
0.000141328
0.000141349
0.00014137
0.000141346
0.000111987
0.000112162
0.000141374
0.00014136
0.00014137
0.000112175
0.000111997
0.000112173
0.000141349
0.000141339
0.000141345
0.000141336
0.000112
0.000112176
0.000141373
0.000141331
0.000141369
0.000141328
0.000141349
0.00014137
0.000141346
0.000111987
0.000112162
0.000141373
0.00014136
0.00014137
0.000112174
0.000111997
0.000112173
0.000141349
0.000141339
0.000141345
0.000141336
0.000112
0.000112176
0.000141373
0.000141331
0.00014137
0.000141328
0.000141349
0.00014137
0.000141346
0.000111987
0.000112162
0.000141374
0.000141361
0.00014137
0.000112174
0.000111997
0.000141349
0.000141339
0.000112
0.000141373
0.00014133
0.000141348
0.000111986
0.000141372
0.00023473
0.000234746
0.000234729
0.000234729
0.000235118
0.000234798
0.000234702
0.000234727
0.000235118
0.000234798
0.000234727
0.000234702
0.000234868
0.000233566
0.000233566
0.000104558
3.87387e-05
0.000129258
3.98203e-05
2.1682e-05
2.28311e-05
0.000104548
3.87347e-05
0.000129255
3.98168e-05
0.000233973
0.000233973
0.000233973
0.000232934
0.000232934
0.000232934
0.000232934
0.000206169
9.34574e-05
0.000233969
0.000231987
0.000222636
8.71023e-05
0.000233611
2.16809e-05
2.28305e-05
0.000206163
0.000233969
9.34577e-05
0.000231986
0.000222644
0.000233611
8.71081e-05
4.78057e-05
4.77941e-05
0.000231346
4.39001e-05
4.38908e-05
7.25215e-05
4.24327e-05
8.1368e-05
4.37578e-05
2.47766e-05
2.54627e-05
7.25108e-05
4.24292e-05
8.13645e-05
4.37541e-05
0.000232531
0.00023253
0.00023253
0.000231081
0.000231082
0.000231081
0.000231081
0.000167427
7.94579e-05
0.00023208
0.00022609
0.000180144
7.45515e-05
0.000231374
2.47748e-05
2.54612e-05
0.000167423
0.00023208
7.94518e-05
0.000226088
0.000180138
0.000231373
7.45549e-05
3.90956e-05
3.90854e-05
0.000219598
3.65136e-05
3.65029e-05
5.6226e-05
4.5546e-05
6.10684e-05
4.64079e-05
2.60144e-05
2.61173e-05
5.62318e-05
4.55433e-05
6.10656e-05
4.6405e-05
0.000230513
0.000230512
0.000230512
0.000228539
0.00022854
0.000228538
0.000228539
0.000138513
6.749e-05
0.000228638
0.000218223
0.000147964
6.35846e-05
0.000227529
2.60122e-05
2.61151e-05
0.000138508
0.000228637
6.74837e-05
0.000218219
0.000147955
0.000227527
6.35809e-05
3.31436e-05
3.3135e-05
0.000204623
3.19266e-05
3.19175e-05
4.69127e-05
4.75001e-05
4.98539e-05
4.80009e-05
2.60489e-05
2.5937e-05
4.6912e-05
4.74966e-05
4.98528e-05
4.79981e-05
0.000227795
0.000227793
0.000227794
0.000225324
0.000225325
0.000225322
0.000225323
0.000117454
5.82674e-05
0.000223709
0.000209414
0.000124483
5.55445e-05
0.000222296
2.60464e-05
2.59349e-05
0.000117451
0.000223707
5.82658e-05
0.000209409
0.000124477
0.000222293
5.55412e-05
3.05532e-05
3.05453e-05
0.000189795
3.02428e-05
3.02351e-05
4.13818e-05
4.8585e-05
4.31946e-05
4.88381e-05
2.5677e-05
2.55171e-05
4.13808e-05
4.85814e-05
4.31951e-05
4.88352e-05
0.000224429
0.000224427
0.000224427
0.000221558
0.000221559
0.000221556
0.000221557
0.000102024
5.19271e-05
0.000217753
0.000200401
0.00010725
5.01225e-05
0.000216161
2.56744e-05
2.5515e-05
0.000102022
0.000217751
5.19255e-05
0.000200394
0.000107244
0.000216157
5.01197e-05
3.01389e-05
3.01318e-05
0.00017639
3.03192e-05
3.03122e-05
3.81157e-05
4.90963e-05
3.91997e-05
4.91994e-05
2.52391e-05
2.50908e-05
3.81147e-05
4.9093e-05
3.91999e-05
4.91964e-05
0.000220548
0.000220544
0.000220546
0.000217389
0.00021739
0.000217385
0.000217387
9.04179e-05
4.7776e-05
0.000211245
0.000191605
9.43257e-05
4.66481e-05
0.000209577
2.52366e-05
2.50888e-05
9.04166e-05
0.000211243
4.77747e-05
0.000191597
9.43201e-05
0.000209572
4.66459e-05
3.09776e-05
3.09713e-05
0.000164589
3.14502e-05
3.14465e-05
3.63397e-05
4.92777e-05
3.69031e-05
4.92995e-05
2.48498e-05
2.47292e-05
3.63385e-05
4.92746e-05
3.69029e-05
4.92964e-05
0.000216302
0.000216297
0.000216299
0.00021295
0.000212951
0.000212946
0.000212948
8.15229e-05
4.51969e-05
0.000204551
0.000183219
8.45385e-05
4.45804e-05
0.000202879
2.48476e-05
2.47273e-05
8.15224e-05
0.000204549
4.5196e-05
0.000183211
8.45329e-05
0.000202873
4.45779e-05
3.25373e-05
3.25289e-05
0.000154302
3.32495e-05
3.32476e-05
3.56463e-05
4.9297e-05
3.57901e-05
4.92874e-05
2.45359e-05
2.44436e-05
3.5644e-05
4.92939e-05
3.57896e-05
4.92843e-05
0.000211816
0.000211811
0.000211814
0.000208364
0.000208364
0.000208359
0.000208361
7.45856e-05
4.3794e-05
0.000197904
0.000175302
7.6991e-05
4.35434e-05
0.000196274
2.45337e-05
2.44417e-05
7.45855e-05
0.000197901
4.37918e-05
0.000175294
7.69855e-05
0.000196268
4.35409e-05
3.45583e-05
3.45506e-05
0.000145261
3.5431e-05
3.543e-05
3.57359e-05
4.92619e-05
3.56135e-05
4.92504e-05
2.42947e-05
2.42267e-05
3.57339e-05
4.92588e-05
3.56121e-05
4.92473e-05
0.000207197
0.000207191
0.000207194
0.000203716
0.000203717
0.000203711
0.000203714
6.91163e-05
4.32616e-05
0.000191443
0.000167865
7.10903e-05
4.32511e-05
0.000189857
2.42925e-05
2.42249e-05
6.91166e-05
0.000191439
4.32603e-05
0.000167856
7.10845e-05
0.000189851
4.32494e-05
3.68825e-05
3.68763e-05
0.000137259
3.78348e-05
3.78338e-05
3.65389e-05
4.92333e-05
3.61891e-05
4.92292e-05
2.41154e-05
2.40674e-05
3.65368e-05
4.92303e-05
3.61879e-05
4.92263e-05
0.000202559
0.000202552
0.000202556
0.00019903
0.000199029
0.000199022
0.000199026
6.48095e-05
4.33991e-05
0.000185221
0.000160924
6.6431e-05
4.35816e-05
0.000183699
2.41132e-05
2.40656e-05
6.48069e-05
0.000185218
4.33984e-05
0.000160915
6.64264e-05
0.000183693
4.35803e-05
3.93619e-05
3.93593e-05
0.000130095
4.03446e-05
4.03421e-05
3.79911e-05
4.92275e-05
3.74252e-05
4.92289e-05
2.39846e-05
2.39533e-05
3.79893e-05
4.92244e-05
3.7424e-05
4.92258e-05
0.000197862
0.000197855
0.000197859
0.000194512
0.000194514
0.000194506
0.00019451
6.15184e-05
4.40814e-05
0.0001792
0.000154374
6.27315e-05
4.44295e-05
0.000177773
2.39826e-05
2.39513e-05
6.15166e-05
0.000179197
4.40812e-05
0.000154364
6.27289e-05
0.000177767
4.44283e-05
4.19019e-05
4.19005e-05
0.000123566
4.28594e-05
4.286e-05
4.00668e-05
4.92198e-05
3.92822e-05
4.92138e-05
2.39098e-05
2.38963e-05
4.00731e-05
4.92169e-05
3.92759e-05
4.9211e-05
0.000193429
0.000193421
0.000193426
0.000190113
0.000190113
0.000190104
0.000190108
5.93383e-05
4.5212e-05
0.000173721
0.000148555
6.00239e-05
4.5677e-05
0.000172423
2.39078e-05
2.38943e-05
5.93371e-05
0.000173717
4.52123e-05
0.000148544
6.00211e-05
0.000172416
4.56764e-05
4.42705e-05
4.42713e-05
0.00011793
4.50742e-05
4.50769e-05
4.24011e-05
4.91958e-05
4.17079e-05
4.91839e-05
2.38801e-05
2.38788e-05
4.23958e-05
4.91934e-05
4.16987e-05
4.91812e-05
0.000189022
0.000189012
0.000189017
0.000186339
0.000186341
0.000186332
0.000186337
5.85773e-05
4.66596e-05
0.00016867
0.000143621
5.87481e-05
4.70595e-05
0.000167568
2.38781e-05
2.38769e-05
5.85745e-05
0.000168666
4.66592e-05
0.000143609
5.87435e-05
0.000167561
4.70578e-05
4.61873e-05
4.61887e-05
0.000113601
4.65836e-05
4.65847e-05
4.36345e-05
4.91738e-05
4.33336e-05
4.91725e-05
2.38796e-05
2.38827e-05
4.3642e-05
4.91708e-05
4.33409e-05
4.91694e-05
0.000185771
0.000185761
0.000185767
0.000185099
0.0001851
0.000185091
0.000185096
5.87674e-05
4.75647e-05
0.000165253
0.000140802
5.86376e-05
4.77964e-05
0.000164869
2.38774e-05
2.38802e-05
5.87693e-05
0.000165249
4.75651e-05
0.000140791
5.86384e-05
0.000164864
4.78014e-05
4.70706e-05
4.70705e-05
0.000111211
4.72449e-05
4.72452e-05
4.41361e-05
4.9175e-05
4.40105e-05
4.91748e-05
2.38853e-05
2.3887e-05
4.41398e-05
4.91722e-05
4.40186e-05
4.91721e-05
0.000185113
0.000185104
0.000185109
0.000185399
0.000185399
0.000185389
0.000185396
5.94079e-05
4.82561e-05
0.000164591
0.000140651
5.91661e-05
4.84713e-05
0.000164689
2.38828e-05
2.38845e-05
5.94104e-05
0.000164587
4.82604e-05
0.000140639
5.91686e-05
0.000164684
4.84734e-05
4.74829e-05
4.74828e-05
0.000111293
4.75882e-05
4.75886e-05
4.42222e-05
4.9174e-05
4.42213e-05
4.91732e-05
2.38864e-05
2.3887e-05
4.42322e-05
4.91714e-05
4.42326e-05
4.91705e-05
0.00018554
0.000185531
0.000185537
0.000185741
0.000185729
0.00018572
0.000185725
5.9857e-05
4.86568e-05
0.000165073
0.000141007
5.97581e-05
4.86781e-05
0.000165133
2.3884e-05
2.38845e-05
5.98605e-05
0.00016507
4.86659e-05
0.000140996
5.97611e-05
0.000165129
4.86863e-05
4.7611e-05
4.76117e-05
0.000111813
4.76108e-05
4.76117e-05
4.42345e-05
4.91732e-05
4.42281e-05
4.9173e-05
2.38864e-05
2.3887e-05
4.42429e-05
4.91706e-05
4.42371e-05
4.91703e-05
0.00018575
0.000185741
0.000185747
0.000185804
0.000185803
0.000185793
0.000185801
5.99632e-05
4.8698e-05
0.000165253
0.000141215
5.99223e-05
4.87099e-05
0.000165304
2.38838e-05
2.38845e-05
5.99656e-05
0.00016525
4.87053e-05
0.000141204
5.99248e-05
0.0001653
4.87168e-05
4.76131e-05
4.7614e-05
0.000112001
4.76137e-05
4.76143e-05
4.42477e-05
4.91736e-05
4.42424e-05
4.91735e-05
2.38865e-05
2.38874e-05
4.4256e-05
4.9171e-05
4.42508e-05
4.91708e-05
0.000185813
0.000185804
0.000185812
0.000185844
0.000185841
0.000185832
0.00018584
6.00198e-05
4.87189e-05
0.000165362
0.000141284
5.9989e-05
4.87265e-05
0.000165382
2.3884e-05
2.38847e-05
6.00218e-05
0.000165359
4.87255e-05
0.000141273
5.9991e-05
0.000165378
4.87329e-05
4.76174e-05
4.76177e-05
0.000112092
4.76179e-05
4.76182e-05
4.42555e-05
4.91743e-05
4.42523e-05
4.9174e-05
2.38867e-05
2.38871e-05
4.42641e-05
4.91714e-05
4.4261e-05
4.91711e-05
0.000185844
0.000185834
0.000185843
0.000185867
0.000185863
0.000185853
0.000185862
6.00457e-05
4.873e-05
0.0001654
0.000141314
6.00225e-05
4.87351e-05
0.00016541
2.38841e-05
2.38848e-05
6.00487e-05
0.000165397
4.87366e-05
0.000141303
6.0025e-05
0.000165406
4.87416e-05
4.76206e-05
4.76209e-05
0.000112132
4.762e-05
4.76205e-05
4.42584e-05
4.91741e-05
4.42568e-05
4.91736e-05
2.38867e-05
2.38874e-05
4.42673e-05
4.91715e-05
4.42658e-05
4.91712e-05
0.000185863
0.000185854
0.000185862
0.000185883
0.000185885
0.000185875
0.000185884
6.00586e-05
4.87354e-05
0.000165418
0.000141334
6.00384e-05
4.87389e-05
0.000165425
2.38842e-05
2.38848e-05
6.00615e-05
0.000165415
4.87421e-05
0.000141323
6.00414e-05
0.000165422
4.87456e-05
4.76218e-05
4.76225e-05
0.000112159
4.76208e-05
4.76215e-05
4.42591e-05
4.91739e-05
4.42582e-05
4.91733e-05
2.38869e-05
2.38877e-05
4.4268e-05
4.91717e-05
4.42674e-05
4.91716e-05
0.000185894
0.000185885
0.000185894
0.000185904
0.000185913
0.000185903
0.000185913
6.00627e-05
4.87373e-05
0.00016543
0.000141347
6.00456e-05
4.87401e-05
0.000165434
2.38842e-05
2.38849e-05
6.00655e-05
0.000165427
4.87442e-05
0.000141336
6.00482e-05
0.000165432
4.87469e-05
4.7622e-05
4.76228e-05
0.000112171
4.76211e-05
4.76217e-05
4.42591e-05
4.91734e-05
4.42583e-05
4.9173e-05
2.38871e-05
2.38877e-05
4.42681e-05
4.9172e-05
4.42676e-05
4.91718e-05
0.000185925
0.000185916
0.000185925
0.000185925
0.000185928
0.000185919
0.000185927
6.00637e-05
4.87379e-05
0.00016544
0.000141354
6.00473e-05
4.87405e-05
0.000165445
2.38842e-05
2.38849e-05
6.00662e-05
0.000165437
4.87448e-05
0.000141344
6.00497e-05
0.000165443
4.87473e-05
4.76221e-05
4.76229e-05
0.000112178
4.76211e-05
4.76217e-05
4.42592e-05
4.91732e-05
4.42584e-05
4.91729e-05
2.38871e-05
2.38877e-05
4.42682e-05
4.91722e-05
4.42676e-05
4.91719e-05
0.000185932
0.000185923
0.00018593
0.000185926
0.00018593
0.00018592
0.000185926
6.00638e-05
4.87381e-05
0.000165458
0.000141367
6.00476e-05
4.87406e-05
0.000165464
2.38842e-05
2.38848e-05
6.00665e-05
0.000165455
4.87449e-05
0.000141357
6.005e-05
0.000165461
4.87474e-05
4.76221e-05
4.76229e-05
0.000112178
4.76211e-05
4.76217e-05
4.42592e-05
4.91731e-05
4.42584e-05
4.91727e-05
2.38871e-05
2.38877e-05
4.42682e-05
4.91723e-05
4.42677e-05
4.91721e-05
0.000185933
0.000185923
0.00018593
0.000185927
0.000185929
0.00018592
0.000185926
6.0064e-05
4.87382e-05
0.00016546
0.000141374
6.00477e-05
4.87407e-05
0.000165464
2.38842e-05
2.38849e-05
6.00667e-05
0.000165457
4.8745e-05
0.000141364
6.00502e-05
0.000165461
4.87474e-05
4.76222e-05
4.7623e-05
0.000112179
4.76212e-05
4.76218e-05
4.42592e-05
4.9173e-05
4.42585e-05
4.91726e-05
2.38871e-05
2.38877e-05
4.42682e-05
4.91724e-05
4.42677e-05
4.91722e-05
0.000185932
0.000185923
0.000185929
0.000185927
0.000185929
0.00018592
0.000185926
6.00641e-05
4.87382e-05
0.00016546
0.000141374
6.00478e-05
4.87407e-05
0.000165464
2.38842e-05
2.38849e-05
6.00666e-05
0.000165457
4.87449e-05
0.000141364
6.00503e-05
0.000165461
4.87474e-05
4.7622e-05
4.76228e-05
0.000112179
4.76211e-05
4.76217e-05
4.42591e-05
4.91729e-05
4.42584e-05
4.91726e-05
2.38871e-05
2.38877e-05
4.42682e-05
4.91725e-05
4.42677e-05
4.91722e-05
0.000185933
0.000185923
0.000185929
0.000185927
0.000185929
0.00018592
0.000185926
6.0064e-05
4.87382e-05
0.00016546
0.000141374
6.00478e-05
4.87407e-05
0.000165464
2.38842e-05
2.38849e-05
6.00665e-05
0.000165457
4.8745e-05
0.000141364
6.00501e-05
0.000165461
4.87474e-05
4.76222e-05
4.76229e-05
0.000112178
4.76211e-05
4.76217e-05
4.42591e-05
4.91729e-05
4.42583e-05
4.91725e-05
2.38871e-05
2.38877e-05
4.42683e-05
4.91725e-05
4.42677e-05
4.91722e-05
0.000185933
0.000185924
0.000185929
0.000185928
0.000185929
0.00018592
0.000185926
6.0064e-05
4.87382e-05
0.00016546
0.000141374
6.00478e-05
4.87407e-05
0.000165462
2.38842e-05
2.38848e-05
6.00667e-05
0.000165458
4.8745e-05
0.000141364
6.00502e-05
0.000165461
4.87474e-05
4.76221e-05
4.76229e-05
0.000112178
4.76211e-05
4.76217e-05
4.42592e-05
4.91729e-05
4.42585e-05
4.91725e-05
2.38871e-05
2.38877e-05
4.42683e-05
4.91725e-05
4.42678e-05
4.91722e-05
0.000185932
0.000185923
0.000185929
0.000185928
0.000185929
0.00018592
0.000185926
6.0064e-05
4.87382e-05
0.000165458
0.000141374
6.00478e-05
4.87407e-05
0.000165462
2.38842e-05
2.38849e-05
6.00667e-05
0.000165457
4.8745e-05
0.000141364
6.00503e-05
0.000165461
4.87474e-05
4.7622e-05
4.76228e-05
0.000112179
4.76211e-05
4.76217e-05
4.42592e-05
4.91728e-05
4.42584e-05
4.91725e-05
2.38871e-05
2.38877e-05
4.42683e-05
4.91725e-05
4.42678e-05
4.91723e-05
0.000185932
0.000185923
0.000185929
0.000185928
0.000185929
0.00018592
0.000185926
6.0064e-05
4.87383e-05
0.000165459
0.000141374
6.00478e-05
4.87408e-05
0.000165463
2.38842e-05
2.38849e-05
6.00665e-05
0.000165457
4.8745e-05
0.000141364
6.00502e-05
0.000165461
4.87474e-05
4.76221e-05
4.76228e-05
0.000112178
4.7621e-05
4.76216e-05
4.42564e-05
4.91728e-05
4.42584e-05
4.91725e-05
2.38871e-05
2.38872e-05
4.42637e-05
4.91725e-05
4.42678e-05
4.91722e-05
0.000185931
0.000185923
0.000185928
6.00652e-05
4.87383e-05
0.000165459
0.000141372
6.00478e-05
4.8742e-05
0.000165463
2.38842e-05
0.000165459
4.87451e-05
6.00498e-05
4.76218e-05
4.76226e-05
0.000234868
0.000233564
0.000233566
2.32581e-05
0.000214158
2.3257e-05
0.000214161
0.000234434
5.13509e-05
5.13343e-05
0.000229989
0.00022999
0.000235118
0.000234798
0.000234702
0.000234727
0.000235118
0.000234798
0.000234702
0.000234727
0.000234476
4.02623e-05
0.000218811
0.000147934
0.000234476
4.02618e-05
0.000218811
0.000147941
0.000233889
0.000234474
9.97703e-05
0.000234271
0.000233358
0.000234597
0.000228488
0.000233888
0.000234474
9.97612e-05
0.000234271
0.000233358
0.000234597
0.000228488
0.000234868
0.000233565
0.000233565
2.32578e-05
0.000214166
0.000234434
5.1345e-05
5.13361e-05
0.000229988
0.00022999
2.32576e-05
0.000214169
0.000235118
0.000234798
0.000234702
0.000234727
0.000235118
0.000234798
0.000234727
0.000234702
0.000234476
4.02591e-05
0.000218812
0.00014791
0.000233888
0.000234474
9.9749e-05
0.00023427
0.000233358
0.000234597
0.000228486
0.000234476
4.02586e-05
0.000218812
0.000147925
0.000233888
0.000234474
0.000234271
9.97563e-05
0.000234597
0.000233358
0.000228488
0.00023473
0.000234746
0.000234729
0.000234729
0.00023473
0.000234746
0.000234729
0.000234729
0.00023473
0.000234746
0.000234729
0.000234729
0.000234591
0.000234574
0.000234253
0.000234252
0.000234592
0.000234592
0.000234252
0.000234591
0.000234574
0.000234253
0.000234252
0.000234592
0.000234592
0.000234252
0.000234591
0.000234574
0.000234253
0.000234252
0.000234592
0.000234592
0.000234252
0.000234591
0.000234574
0.000234253
0.000234252
0.000234592
0.000234592
0.000234252
0.000235118
0.000234798
0.000234727
0.000234702
0.000233888
0.000234474
9.97514e-05
0.00023427
0.000233358
0.000234597
0.000228486
0.000234476
4.02598e-05
0.000218814
0.000147926
0.000233888
0.000234474
0.000234271
9.97665e-05
0.000234597
0.000233358
0.000228488
0.000234476
4.02594e-05
0.000218813
0.000147934
0.000234868
0.000233566
0.000233566
2.3257e-05
0.000214162
0.000234434
5.13355e-05
5.13417e-05
0.00022999
0.000229992
2.32574e-05
0.00021417
0.000235118
0.000234798
0.000234727
0.000234702
0.000233888
0.000234474
0.00023427
9.97612e-05
0.000234596
0.000233359
0.000228487
0.000233888
0.000234474
0.00023427
9.97506e-05
0.000234597
0.000233358
0.000228486
0.000234476
4.0259e-05
0.000218815
0.000147912
0.000234476
4.02588e-05
0.00021881
0.000147898
0.000234434
5.13456e-05
5.13334e-05
0.000229991
0.000229991
2.32575e-05
0.000214169
2.3257e-05
0.000214163
2.16823e-05
2.28322e-05
2.1681e-05
2.28307e-05
4.78096e-05
4.77958e-05
0.000231346
4.39027e-05
4.38895e-05
2.44807e-05
2.33081e-05
2.44791e-05
2.33068e-05
0.000229664
4.002e-05
4.00085e-05
4.30168e-05
4.30006e-05
0.00010457
3.87379e-05
0.000129244
3.98183e-05
0.000206173
9.34679e-05
0.000233969
0.000231986
0.000222631
8.71098e-05
0.000233611
0.000206176
9.34514e-05
0.000233969
0.000231982
0.000222628
8.70977e-05
0.000233611
9.83252e-05
4.19566e-05
4.03761e-05
8.55337e-05
9.83176e-05
4.19551e-05
4.03751e-05
8.55353e-05
0.000200027
0.000230748
8.08151e-05
0.000232682
8.5556e-05
0.000233189
0.000185574
0.000200026
0.000230744
8.08077e-05
0.000232682
8.55383e-05
0.000233189
0.000185577
4.77983e-05
4.78089e-05
0.000231347
4.38951e-05
4.38946e-05
2.1682e-05
2.28323e-05
2.44798e-05
2.33074e-05
0.000229664
4.00139e-05
4.00098e-05
4.30028e-05
4.3015e-05
2.4481e-05
2.33081e-05
0.000206163
9.34463e-05
0.000233969
0.000231983
0.000222631
8.70912e-05
0.000233611
0.000104551
3.87342e-05
0.000129273
3.98162e-05
0.000206164
0.000233969
9.34503e-05
0.000231981
0.000222635
0.000233611
8.70905e-05
9.83222e-05
4.19529e-05
4.03725e-05
8.55279e-05
0.000200025
0.000230745
8.08016e-05
0.000232682
8.55383e-05
0.000233189
0.000185572
9.83233e-05
4.19521e-05
4.03718e-05
8.55258e-05
0.000200025
0.000230743
0.000232682
8.07968e-05
0.000233188
8.5537e-05
0.000185568
0.000104557
3.87352e-05
0.000129263
3.98192e-05
0.00020617
0.000233969
9.34589e-05
0.000231985
0.000222641
0.000233611
8.71059e-05
0.000104555
3.8736e-05
0.000129283
3.98172e-05
0.000200028
0.00023075
8.08107e-05
0.000232683
8.55532e-05
0.000233189
0.000185575
9.83227e-05
4.19553e-05
4.03736e-05
8.55296e-05
0.000200028
0.000230748
0.000232682
8.08156e-05
0.000233189
8.55501e-05
0.000185574
9.83283e-05
4.1954e-05
4.03741e-05
8.55307e-05
4.77982e-05
4.7804e-05
0.000231345
4.38863e-05
4.39048e-05
2.16814e-05
2.28312e-05
2.44786e-05
2.33059e-05
0.000229664
4.00037e-05
4.00214e-05
4.30048e-05
4.30095e-05
2.44798e-05
2.33074e-05
0.00020616
0.000233969
9.34449e-05
0.000231983
0.00022264
0.000233611
8.70943e-05
0.000104535
3.8735e-05
0.000129291
3.98174e-05
0.000104531
3.87344e-05
0.000129277
3.98164e-05
0.000200026
0.00023075
0.000232682
8.08156e-05
0.000233189
8.55469e-05
0.000185572
0.000200027
0.000230746
0.000232682
8.08066e-05
0.000233189
8.55369e-05
0.00018557
9.83379e-05
4.19536e-05
4.03737e-05
8.55254e-05
9.83369e-05
4.19529e-05
4.03723e-05
8.55251e-05
2.16818e-05
2.28312e-05
2.16809e-05
2.28306e-05
0.000229664
4.00217e-05
4.00099e-05
4.30133e-05
4.29994e-05
2.44799e-05
2.33077e-05
2.4479e-05
2.3307e-05
2.47773e-05
2.54638e-05
2.47756e-05
2.5462e-05
3.91032e-05
3.9086e-05
0.0002196
3.65117e-05
3.65029e-05
2.5954e-05
2.56208e-05
2.59525e-05
2.5619e-05
0.000216771
3.37826e-05
3.3775e-05
3.56599e-05
3.56429e-05
7.2524e-05
4.24317e-05
8.13698e-05
4.37566e-05
0.000167425
7.94592e-05
0.000232079
0.000226085
0.000180143
7.45535e-05
0.000231374
0.000167428
7.94429e-05
0.000232079
0.00022608
0.000180145
7.45485e-05
0.000231373
6.95735e-05
4.52324e-05
4.415e-05
6.31833e-05
6.95756e-05
4.5232e-05
4.41487e-05
6.31861e-05
0.000162799
0.000224256
6.87278e-05
0.00022965
7.32111e-05
0.000230563
0.000151817
0.000162802
0.000224251
6.87248e-05
0.000229649
7.31937e-05
0.000230563
0.00015182
3.9089e-05
3.91027e-05
0.000219602
3.65081e-05
3.65021e-05
2.47773e-05
2.5464e-05
2.59535e-05
2.56199e-05
0.000216772
3.3779e-05
3.37776e-05
3.56463e-05
3.56566e-05
2.59544e-05
2.56206e-05
0.000167425
7.94411e-05
0.000232079
0.000226084
0.000180137
7.45445e-05
0.000231373
7.25084e-05
4.2428e-05
8.13634e-05
4.37532e-05
0.000167422
0.000232078
7.94433e-05
0.000226078
0.000180135
0.000231373
7.45357e-05
6.95785e-05
4.52294e-05
4.41466e-05
6.31817e-05
0.000162793
0.000224255
6.87202e-05
0.000229649
7.3194e-05
0.000230564
0.000151817
6.95776e-05
4.52282e-05
4.41446e-05
6.31788e-05
0.00016279
0.000224248
0.000229648
6.87144e-05
0.000230562
7.31926e-05
0.000151813
7.25168e-05
4.24309e-05
8.13706e-05
4.37566e-05
0.000167424
0.000232079
7.94515e-05
0.000226084
0.000180142
0.000231374
7.45546e-05
7.25198e-05
4.24306e-05
8.13646e-05
4.37549e-05
0.000162801
0.000224261
6.87289e-05
0.000229651
7.32084e-05
0.000230564
0.000151819
6.95779e-05
4.52318e-05
4.41481e-05
6.31835e-05
0.000162799
0.000224255
0.000229649