/*--------------------------------*- C++ -*----------------------------------*\
| =========                 |                                                 |
| \\      /  F ield         | OpenFOAM: The Open Source CFD Toolbox           |
|  \\    /   O peration     | Version:  v1912                                 |
|   \\  /    A nd           | Website:  www.openfoam.com                      |
|    \\/     M anipulation  |                                                 |
\*---------------------------------------------------------------------------*/
FoamFile
{
    version     2.0;
    format      ascii;
    class       surfaceScalarField;
    location    "60";
    object      phi;
}
// * * * * * * * * * * * * * * * * * * * * * * * * * * * * * * * * * * * * * //

dimensions      [0 3 -1 0 0 0 0];
oriented        oriented;


internalField   nonuniform List<scalar> 
165607
(
-0.00104215
-1.4607e-05
-1.45032e-05
9.36395e-06
9.19405e-06
0.0010527
-0.000261455
-5.65764e-06
1.44839e-05
6.88159e-06
0.00105938
-4.56949e-06
-1.60015e-06
-2.19717e-06
-2.5519e-06
-6.65024e-06
-7.05746e-06
-3.16989e-06
-0.000263289
-0.000259726
-0.000262822
-0.000261432
-5.66265e-06
1.45129e-05
6.97126e-06
0.00105917
-4.57467e-06
-1.61028e-06
-2.20479e-06
-2.55629e-06
-6.6443e-06
-7.05366e-06
-3.17199e-06
-0.000259698
-0.000263261
-0.000262786
-0.000260567
5.63324e-06
5.67323e-06
-4.87204e-06
-4.86612e-06
0.000258998
-1.62182e-06
-1.62354e-06
-0.00106075
8.95257e-07
8.95878e-07
0.0010622
-0.00106267
-1.60941e-06
1.61738e-06
7.68085e-07
0.00106396
-6.6778e-07
8.21299e-07
-1.33727e-07
3.94521e-07
-7.99937e-07
-1.41816e-06
-2.59244e-07
-0.00106235
-1.6043e-06
1.62805e-06
7.63384e-07
0.00106363
-6.67751e-07
8.15781e-07
-1.33771e-07
3.91896e-07
-8.02484e-07
-1.41781e-06
-2.56753e-07
-0.000261557
1.64217e-06
1.60445e-06
-6.90528e-07
-6.93693e-07
0.000259695
-1.36554e-06
-1.36718e-06
-0.00106641
6.89638e-07
6.90335e-07
0.00106777
-0.00106791
-1.5688e-06
1.37179e-06
6.62284e-07
0.00106926
-6.38609e-07
8.72922e-07
-9.21277e-08
4.43676e-07
-7.91877e-07
-1.3895e-06
-2.20062e-07
-0.00106758
-1.56351e-06
1.36661e-06
6.6762e-07
0.00106893
-6.38604e-07
8.67479e-07
-9.20977e-08
4.43621e-07
-7.91801e-07
-1.38391e-06
-2.17582e-07
-0.000262793
1.59908e-06
1.56366e-06
-6.60174e-07
-6.68359e-07
0.000260959
-1.34758e-06
-1.34904e-06
-0.00107187
6.71369e-07
6.72137e-07
0.00107322
-0.00107327
-1.56958e-06
1.34863e-06
6.44588e-07
0.00107458
-6.36777e-07
8.96862e-07
-6.83929e-08
4.60075e-07
-7.94192e-07
-1.39597e-06
-1.99275e-07
-0.00107293
-1.56424e-06
1.34847e-06
6.44666e-07
0.00107424
-6.34045e-07
8.91389e-07
-7.07127e-08
4.60025e-07
-7.96678e-07
-1.39573e-06
-1.96788e-07
-0.000264073
1.59743e-06
1.56447e-06
-6.51628e-07
-6.57267e-07
0.00026222
-1.30013e-06
-1.30142e-06
-0.00107722
6.46287e-07
6.47101e-07
0.00107853
-0.00107844
-1.56242e-06
1.30107e-06
6.15356e-07
0.0010797
-6.23975e-07
9.24404e-07
-4.47397e-08
4.83933e-07
-7.83916e-07
-1.39594e-06
-1.70847e-07
-0.0010781
-1.55702e-06
1.30085e-06
6.15365e-07
0.00107936
-6.21207e-07
9.18939e-07
-4.69853e-08
4.8387e-07
-7.86413e-07
-1.39571e-06
-1.68359e-07
-0.000265291
1.59041e-06
1.55727e-06
-6.35348e-07
-6.41001e-07
0.00026342
-1.25047e-06
-1.25159e-06
-0.00108237
6.22279e-07
6.2315e-07
0.00108363
-0.00108338
-1.55423e-06
1.25127e-06
5.89145e-07
0.00108457
-6.11235e-07
9.49978e-07
-2.44265e-08
5.08917e-07
-7.69337e-07
-1.39134e-06
-1.42888e-07
-0.00108304
-1.54879e-06
1.25099e-06
5.89111e-07
0.00108423
-6.08443e-07
9.44503e-07
-2.65727e-08
5.08839e-07
-7.71849e-07
-1.39113e-06
-1.40418e-07
-0.000266437
1.58236e-06
1.54905e-06
-6.18526e-07
-6.24191e-07
0.000264548
-1.20477e-06
-1.20568e-06
-0.00108733
6.01212e-07
6.02045e-07
0.00108853
-0.00108806
-1.54731e-06
1.20536e-06
5.67483e-07
0.0010892
-6.00771e-07
9.72762e-07
-8.37327e-09
5.33306e-07
-7.54109e-07
-1.38523e-06
-1.17467e-07
-0.00108772
-1.54189e-06
1.20507e-06
5.67497e-07
0.00108885
-5.98015e-07
9.67208e-07
-1.03657e-08
5.3321e-07
-7.56648e-07
-1.38504e-06
-1.15027e-07
-0.000267508
1.57569e-06
1.5422e-06
-6.03617e-07
-6.09328e-07
0.000265603
-1.16492e-06
-1.1667e-06
-0.00109209
5.84026e-07
5.84814e-07
0.00109325
-0.00109252
-1.54285e-06
1.16642e-06
5.50532e-07
0.0010936
-5.93604e-07
9.91483e-07
7.24069e-09
5.55442e-07
-7.39983e-07
-1.37917e-06
-9.60334e-08
-0.00109217
-1.53728e-06
1.16654e-06
5.50819e-07
0.00109325
-5.90651e-07
9.86064e-07
3.53743e-09
5.55458e-07
-7.42432e-07
-1.37887e-06
-9.35203e-08
-0.000268511
1.57122e-06
1.53744e-06
-5.91329e-07
-5.96925e-07
0.000266591
-1.13323e-06
-1.13467e-06
-0.00109668
5.71163e-07
5.71746e-07
0.0010978
-0.00109676
-1.54096e-06
1.1344e-06
5.38491e-07
0.00109779
-5.88718e-07
1.00644e-06
2.42081e-08
5.74646e-07
-7.26764e-07
-1.3733e-06
-7.85569e-08
-0.00109642
-1.53536e-06
1.13446e-06
5.38571e-07
0.00109745
-5.85808e-07
1.00101e-06
2.0926e-08
5.74674e-07
-7.29211e-07
-1.37298e-06
-7.60503e-08
-0.000269451
1.56927e-06
1.53543e-06
-5.81926e-07
-5.87564e-07
0.000267516
-1.0985e-06
-1.09983e-06
-0.00110112
5.56182e-07
5.56717e-07
0.0011022
-0.00110082
-1.53823e-06
1.09955e-06
5.2501e-07
0.0011018
-5.82849e-07
1.02043e-06
3.74417e-08
5.92945e-07
-7.1141e-07
-1.36486e-06
-6.29231e-08
-0.00110047
-1.53261e-06
1.09957e-06
5.2501e-07
0.00110146
-5.79949e-07
1.01498e-06
3.43351e-08
5.92956e-07
-7.13879e-07
-1.36455e-06
-6.04465e-08
-0.000270333
1.5667e-06
1.5327e-06
-5.72367e-07
-5.78082e-07
0.000268384
-1.04718e-06
-1.0483e-06
-0.0011054
5.33844e-07
5.34382e-07
0.00110643
-0.00110468
-1.53026e-06
1.04797e-06
5.01198e-07
0.0011056
-5.6759e-07
1.037e-06
5.12876e-08
6.15556e-07
-6.88122e-07
-1.34808e-06
-4.41101e-08
-0.00110433
-1.52465e-06
1.048e-06
5.01143e-07
0.00110526
-5.67492e-07
1.03151e-06
5.13895e-08
6.15505e-07
-6.90684e-07
-1.34782e-06
-4.17258e-08
-0.000271154
1.55893e-06
1.52478e-06
-5.57922e-07
-5.63657e-07
0.000269192
-9.30118e-07
-9.30693e-07
-0.00110937
4.71211e-07
4.7189e-07
0.00111029
-0.00110821
-1.50681e-06
9.30845e-07
4.47665e-07
0.00110902
-5.35758e-07
1.0657e-06
8.40887e-08
6.62234e-07
-6.39651e-07
-1.30396e-06
-8.98558e-09
-0.00110786
-1.50098e-06
9.30616e-07
4.47499e-07
0.00110867
-5.35571e-07
1.06029e-06
8.42359e-08
6.62233e-07
-6.42193e-07
-1.30369e-06
-7.04323e-09
-0.000271884
1.53564e-06
1.50136e-06
-5.26166e-07
-5.31726e-07
0.000269905
-5.81276e-07
-5.8164e-07
-0.00111255
3.05351e-07
3.05842e-07
0.0011131
-0.00111097
-1.42282e-06
5.81783e-07
2.75883e-07
0.00111143
-4.48763e-07
1.15193e-06
1.72782e-07
7.90861e-07
-5.09912e-07
-1.17599e-06
1.29989e-07
-0.00111062
-1.4173e-06
5.81416e-07
2.75665e-07
0.00111108
-4.48633e-07
1.14628e-06
1.72768e-07
7.90782e-07
-5.12358e-07
-1.17573e-06
1.33066e-07
-0.000272423
1.45164e-06
1.41734e-06
-4.21012e-07
-4.26447e-07
0.000270402
-3.29962e-07
-3.30286e-07
-0.00111429
1.86797e-07
1.86911e-07
0.00111458
-0.00111228
-1.35266e-06
3.29995e-07
1.64366e-07
0.00111245
-3.73901e-07
1.21371e-06
2.39586e-07
8.79262e-07
-4.09643e-07
-1.07594e-06
2.20816e-07
-0.00111193
-1.34712e-06
3.3013e-07
1.64462e-07
0.0011121
-3.73914e-07
1.2081e-06
2.39544e-07
8.79078e-07
-4.12355e-07
-1.07579e-06
2.23571e-07
-0.000272631
1.38171e-06
1.34725e-06
-3.32347e-07
-3.37826e-07
0.000270572
-1.69613e-07
-1.69886e-07
-0.0011152
1.02413e-07
1.02358e-07
0.00111533
-0.00111272
-1.31375e-06
1.6975e-07
9.05784e-08
0.00111276
-3.36102e-07
1.24923e-06
2.73335e-07
9.3132e-07
-3.55913e-07
-1.01897e-06
2.69864e-07
-0.00111237
-1.30823e-06
1.69783e-07
9.06666e-08
0.00111241
-3.36098e-07
1.24358e-06
2.7328e-07
9.31156e-07
-3.58557e-07
-1.01881e-06
2.72702e-07
-0.000272639
1.34285e-06
1.30832e-06
-2.87795e-07
-2.93233e-07
0.000270569
-4.9913e-08
-4.97908e-08
-0.00111556
3.18421e-08
3.19016e-08
0.0011156
-0.0011128
-1.28735e-06
5.00271e-08
3.21204e-08
0.0011128
-3.12756e-07
1.27292e-06
2.94279e-07
9.62549e-07
-3.24861e-07
-9.83959e-07
2.97926e-07
-0.00111245
-1.28171e-06
5.0112e-08
3.20321e-08
0.00111245
-3.12653e-07
1.26738e-06
2.94301e-07
9.62333e-07
-3.27624e-07
-9.8385e-07
3.00643e-07
-0.000272602
1.31646e-06
1.28194e-06
-2.61898e-07
-2.67284e-07
0.000270533
-6.48078e-09
-6.21228e-09
-0.00111565
3.67517e-09
3.79815e-09
0.00111565
-0.00111279
-1.27815e-06
6.32911e-09
1.04557e-08
0.00111279
-3.05378e-07
1.28049e-06
3.00383e-07
9.71492e-07
-3.15354e-07
-9.7335e-07
3.06145e-07
-0.00111244
-1.27257e-06
6.21067e-09
1.02934e-08
0.00111244
-3.053e-07
1.27494e-06
3.00458e-07
9.71339e-07
-3.18025e-07
-9.73174e-07
3.08958e-07
-0.000272582
1.30723e-06
1.27273e-06
-2.54007e-07
-2.59345e-07
0.000270516
1.59295e-09
1.95761e-09
-0.00111566
-2.03956e-09
-1.9742e-09
0.00111566
-0.00111278
-1.27673e-06
-2.06352e-09
6.68042e-09
0.00111278
-3.04242e-07
1.28156e-06
3.01263e-07
9.72814e-07
-3.13884e-07
-9.71705e-07
3.07369e-07
-0.00111243
-1.27119e-06
-2.09062e-09
6.57258e-09
0.00111243
-3.04232e-07
1.27599e-06
3.01305e-07
9.72638e-07
-3.16592e-07
-9.71547e-07
3.10145e-07
-0.000272577
1.30585e-06
1.27133e-06
-2.52996e-07
-2.58351e-07
0.000270511
2.48141e-09
2.93924e-09
-0.00111566
-2.81261e-09
-2.72988e-09
0.00111566
-0.00111278
-1.27665e-06
-3.0372e-09
6.51334e-09
0.00111278
-3.04239e-07
1.28159e-06
3.01235e-07
9.72868e-07
-3.1381e-07
-9.71577e-07
3.07395e-07
-0.00111243
-1.27107e-06
-3.04265e-09
6.36346e-09
0.00111243
-3.04187e-07
1.27604e-06
3.01292e-07
9.72682e-07
-3.16523e-07
-9.71429e-07
3.10162e-07
-0.000272576
1.30569e-06
1.27117e-06
-2.52916e-07
-2.58276e-07
0.00027051
2.71929e-09
3.02786e-09
-0.00111566
-2.93102e-09
-2.88649e-09
0.00111566
-0.00111278
-1.27657e-06
-3.11894e-09
6.37373e-09
0.00111278
-3.04183e-07
1.28163e-06
3.01273e-07
9.72839e-07
-3.13812e-07
-9.71566e-07
3.07359e-07
-0.00111243
-1.27103e-06
-3.15917e-09
6.3175e-09
0.00111243
-3.04165e-07
1.27604e-06
3.01283e-07
9.72662e-07
-3.16528e-07
-9.71421e-07
3.10134e-07
-0.000272575
1.30569e-06
1.27118e-06
-2.52956e-07
-2.58311e-07
0.00027051
2.80846e-09
3.04801e-09
-0.00111565
-3.01842e-09
-3.05564e-09
0.00111565
-0.00111278
-1.27654e-06
-3.28383e-09
6.30544e-09
0.00111278
-3.06957e-07
1.28165e-06
3.04109e-07
9.7284e-07
-3.13846e-07
-9.71568e-07
3.07372e-07
-0.00111243
-1.271e-06
-3.30185e-09
6.25066e-09
0.00111243
-3.04129e-07
1.27607e-06
3.01308e-07
9.72666e-07
-3.16523e-07
-9.71406e-07
3.10133e-07
-0.000272575
1.30561e-06
1.27109e-06
-2.52877e-07
-2.58235e-07
0.00027051
3.00954e-09
3.25237e-09
-0.00111565
-3.08391e-09
-3.07631e-09
0.00111565
-0.00111278
-1.2765e-06
-3.33555e-09
6.2305e-09
0.00111278
-3.06976e-07
1.28166e-06
3.04184e-07
9.72834e-07
-3.13844e-07
-9.71559e-07
3.07369e-07
-0.00111243
-1.271e-06
-3.24684e-09
6.27529e-09
0.00111243
-3.04162e-07
1.27605e-06
3.01257e-07
9.72651e-07
-3.16543e-07
-9.71414e-07
3.10103e-07
-0.000272575
1.30561e-06
1.27109e-06
-2.52904e-07
-2.58258e-07
0.00027051
2.87917e-09
3.17624e-09
-0.00111565
-3.07751e-09
-3.0167e-09
0.00111565
-0.00111278
-1.27654e-06
-3.16085e-09
6.33605e-09
0.00111278
-3.07051e-07
1.28161e-06
3.04102e-07
9.72806e-07
-3.13888e-07
-9.71587e-07
3.07323e-07
-0.00111243
-1.27096e-06
-3.28839e-09
6.14692e-09
0.00111243
-3.0407e-07
1.27608e-06
3.01338e-07
9.72636e-07
-3.1653e-07
-9.71423e-07
3.10111e-07
-0.000272575
1.30565e-06
1.27113e-06
-2.5294e-07
-2.58294e-07
0.00027051
2.84578e-09
3.13796e-09
-0.00111565
-3.03909e-09
-2.99962e-09
0.00111565
-0.00111278
-1.27651e-06
-3.23603e-09
6.26547e-09
0.00111278
-3.06987e-07
1.28163e-06
3.04127e-07
9.72816e-07
-3.13866e-07
-9.71578e-07
3.0734e-07
-0.00111243
-1.271e-06
-3.22721e-09
6.20909e-09
0.00111243
-3.04144e-07
1.27606e-06
3.0129e-07
9.72636e-07
-3.16544e-07
-9.71425e-07
3.10103e-07
-0.000272575
1.30566e-06
1.27113e-06
-2.5294e-07
-2.58301e-07
0.00027051
2.93446e-09
3.24138e-09
-0.00111565
-3.088e-09
-3.04496e-09
0.00111565
-0.00111278
-1.27652e-06
-3.28164e-09
6.28748e-09
0.00111278
-3.06994e-07
1.28164e-06
3.04156e-07
9.72823e-07
-3.13854e-07
-9.71565e-07
3.07352e-07
-0.00111243
-1.271e-06
-3.24321e-09
6.24186e-09
0.00111243
-3.04141e-07
1.27605e-06
3.01288e-07
9.72636e-07
-3.16543e-07
-9.71421e-07
3.10099e-07
-0.000272575
1.3056e-06
1.27108e-06
-2.52872e-07
-2.5823e-07
0.00027051
2.92932e-09
3.25406e-09
-0.00111565
-3.10917e-09
-3.06625e-09
0.00111565
-0.00111278
-1.27654e-06
-3.18373e-09
6.30334e-09
0.00111278
-3.07027e-07
1.28162e-06
3.04121e-07
9.72806e-07
-3.13878e-07
-9.71578e-07
3.07323e-07
-0.00111243
-1.27101e-06
-3.14304e-09
6.25743e-09
0.00111243
-3.04162e-07
1.27604e-06
3.01255e-07
9.72617e-07
-3.1656e-07
-9.71433e-07
3.10071e-07
-0.000272575
1.30565e-06
1.27113e-06
-2.52944e-07
-2.58301e-07
0.00027051
2.80975e-09
3.17481e-09
-0.00111565
-3.05123e-09
-2.99019e-09
0.00111565
-0.00111278
-1.27653e-06
-3.22628e-09
6.30055e-09
0.00111278
-3.0701e-07
1.28162e-06
3.04119e-07
9.72809e-07
-3.1386e-07
-9.71566e-07
3.07327e-07
-0.00111243
-1.27096e-06
-3.28651e-09
6.16271e-09
0.00111243
-3.04073e-07
1.27607e-06
3.01312e-07
9.72629e-07
-3.16515e-07
-9.71409e-07
3.101e-07
-0.000272575
1.30565e-06
1.27113e-06
-2.52938e-07
-2.58292e-07
0.00027051
2.98293e-09
3.3512e-09
-0.00111565
-3.13557e-09
-3.11151e-09
0.00111565
-0.00111278
-1.27651e-06
-3.27634e-09
6.24111e-09
0.00111278
-3.06966e-07
1.28164e-06
3.04163e-07
9.72801e-07
-3.13839e-07
-9.71549e-07
3.0733e-07
-0.00111243
-1.271e-06
-3.19775e-09
6.24505e-09
0.00111243
-3.04146e-07
1.27604e-06
3.01267e-07
9.72607e-07
-3.16526e-07
-9.71402e-07
3.10068e-07
-0.000272575
1.30562e-06
1.2711e-06
-2.52893e-07
-2.58256e-07
0.00027051
2.80215e-09
3.2294e-09
-0.00111565
-3.04873e-09
-3.01632e-09
0.00111565
-0.00111278
-1.27652e-06
-3.21345e-09
6.30364e-09
0.00111278
-3.07003e-07
1.2816e-06
3.04091e-07
9.72771e-07
-3.13837e-07
-9.71529e-07
3.07291e-07
-0.00111243
-1.27097e-06
-3.18795e-09
6.24462e-09
0.00111243
-3.04118e-07
1.27602e-06
3.01235e-07
9.72575e-07
-3.16507e-07
-9.71378e-07
3.10035e-07
-0.000272575
1.30563e-06
1.27112e-06
-2.52919e-07
-2.58278e-07
0.00027051
2.81004e-09
3.34548e-09
-0.00111565
-3.0986e-09
2.21729e-09
0.00111565
-0.00111278
-1.27647e-06
-3.21901e-09
6.25935e-09
0.00111278
-3.0694e-07
1.28157e-06
3.04076e-07
9.72718e-07
-3.13795e-07
-9.71482e-07
3.07259e-07
-0.00111243
-1.2709e-06
-3.2412e-09
6.18295e-09
-3.04011e-07
1.276e-06
3.01248e-07
9.72514e-07
-3.16436e-07
-9.71316e-07
3.10016e-07
-0.000272575
1.30556e-06
1.27104e-06
-2.52831e-07
-2.5819e-07
0.00027051
5.21158e-06
5.22242e-06
0.000260569
-0.000259158
-5.92954e-06
-5.91542e-06
5.06484e-06
0.000261404
-0.000258672
-5.95803e-06
3.3725e-06
-5.21165e-06
5.05981e-06
0.000261437
-0.000258687
-5.96603e-06
3.36766e-06
5.21224e-06
0.000260582
-0.000259161
-5.90094e-06
-5.94413e-06
5.05792e-06
0.000261468
-0.000258702
-5.96351e-06
3.36235e-06
5.06464e-06
-5.2139e-06
0.000261412
-0.000258672
3.37756e-06
-5.96821e-06
1.07133e-05
1.06195e-05
-0.000252643
-0.000256072
-0.000255112
-0.000255113
-6.43349e-06
-4.10907e-06
-6.66534e-06
-6.43384e-06
-4.10997e-06
-6.67087e-06
-5.05287e-06
0.00104217
1.06728e-05
1.06248e-05
-0.000252645
-0.00025607
-0.000255115
-0.000255115
-6.43609e-06
-4.10934e-06
-6.66807e-06
-6.4313e-06
-4.10476e-06
-6.66329e-06
-5.05252e-06
0.00104205
1.07331e-05
1.06854e-05
-0.000252638
-0.000256065
-0.000255112
-0.000255107
-6.43595e-06
-4.11672e-06
-6.66801e-06
-6.43615e-06
-4.107e-06
-6.66562e-06
-5.06721e-06
-5.05533e-06
0.00104212
1.07284e-05
1.06297e-05
-0.00025264
-0.000256067
-0.000255112
-0.000255113
-6.43084e-06
-4.11167e-06
-6.66301e-06
-6.43627e-06
-4.10981e-06
-6.66834e-06
-0.000258697
-5.95587e-06
3.35731e-06
-5.21148e-06
0.000261399
-0.000258669
3.37254e-06
-5.95795e-06
5.21463e-06
0.000260562
-0.000259146
-5.90324e-06
-5.94141e-06
-0.000258682
3.36484e-06
-5.95301e-06
-5.22239e-06
0.000261465
-0.000258697
3.35984e-06
-5.96098e-06
-0.000259156
-5.9294e-06
-5.91545e-06
5.63352e-06
5.67059e-06
-4.87234e-06
-4.86611e-06
0.000259004
-8.22767e-07
-7.86632e-07
0.000261567
-0.000259437
-2.64288e-07
-2.56832e-07
7.1339e-06
0.00105879
-4.56694e-06
-1.55392e-06
-2.19195e-06
-2.55305e-06
-6.66461e-06
-7.06329e-06
-3.17676e-06
-0.000263251
-0.000259683
-0.000262786
-5.64396e-06
1.45803e-05
7.07328e-06
0.00105915
-4.58612e-06
-1.54632e-06
-2.19506e-06
-2.56385e-06
-6.69613e-06
-7.08011e-06
-3.19246e-06
-0.000263325
-0.000259713
-0.000262827
0.00106192
1.95931e-06
-0.00106087
9.12847e-07
-1.71888e-06
-1.45451e-07
-6.95827e-07
-1.47653e-06
-2.63084e-07
-8.1375e-07
3.72838e-07
8.30883e-07
0.00106234
1.9598e-06
-0.00106128
9.07818e-07
-1.72932e-06
-1.38178e-07
-7.01383e-07
-1.4823e-06
-2.63191e-07
-8.14041e-07
3.7828e-07
-4.87049e-06
-4.86297e-06
0.000259014
-7.89347e-07
0.000261593
-0.000259457
-2.61581e-07
-2.53954e-07
6.85527e-06
0.00105962
-4.5912e-06
-1.61289e-06
-2.20803e-06
-2.56222e-06
-6.67868e-06
-7.07555e-06
-3.18775e-06
-0.000263346
-0.000259741
-0.00026284
-5.64364e-06
1.46146e-05
7.1675e-06
0.00105893
-4.58591e-06
-1.55636e-06
-2.20007e-06
-2.56591e-06
-6.6954e-06
-7.07912e-06
-3.19212e-06
-0.000259683
-0.000263302
-0.000262799
0.00106293
1.96696e-06
-0.00106187
9.01475e-07
-1.68888e-06
-1.47894e-07
-6.9612e-07
-1.47949e-06
-2.63122e-07
-8.11397e-07
3.75314e-07
8.20166e-07
0.00106203
1.96998e-06
-0.001061
9.23064e-07
-1.71902e-06
-1.43067e-07
-6.96049e-07
-1.4793e-06
-2.60637e-07
-8.16463e-07
3.72812e-07
1.46116e-05
7.15484e-06
0.00105874
-4.56684e-06
-1.55379e-06
-2.1893e-06
-2.55312e-06
-6.66463e-06
-3.17684e-06
-7.06107e-06
-0.000259678
-0.000263246
-0.000262781
1.96625e-06
-0.00106162
9.06762e-07
-1.68876e-06
-1.4529e-07
-6.93175e-07
-1.47676e-06
-2.65452e-07
3.70026e-07
-8.11139e-07
8.20129e-07
0.00106181
1.96968e-06
-0.00106079
9.23119e-07
-1.71894e-06
-1.42969e-07
-6.95806e-07
-1.47916e-06
-2.6304e-07
-8.13664e-07
3.75417e-07
-4.8752e-06
-4.86281e-06
0.000258993
-7.81158e-07
0.000261544
-0.000259419
-2.64663e-07
-2.59272e-07
1.4513e-05
6.87383e-06
0.00105957
-4.59137e-06
-1.6129e-06
-2.20809e-06
-2.56204e-06
-6.6785e-06
-3.18765e-06
-7.07282e-06
-0.000259731
-0.000263343
-0.000262835
1.97133e-06
-0.00106132
9.22136e-07
-1.68631e-06
-1.47753e-07
-6.95853e-07
-1.47362e-06
-2.60568e-07
3.70076e-07
-8.13703e-07
7.81251e-07
0.00106284
1.9719e-06
-0.00106179
9.11795e-07
-1.68384e-06
-1.47891e-07
-6.9351e-07
-1.47674e-06
-2.6297e-07
-8.13847e-07
3.70216e-07
-0.000259434
-2.61799e-07
-2.5949e-07
1.64219e-06
1.60692e-06
-6.87861e-07
-6.96217e-07
0.000259702
-9.00748e-07
-8.61725e-07
0.000262806
-0.000260642
-2.04634e-07
-1.9698e-07
7.69383e-07
0.0010632
-6.70336e-07
8.548e-07
-1.29009e-07
3.94675e-07
-7.99876e-07
-1.42048e-06
-2.59189e-07
-1.6475e-06
1.62248e-06
7.64168e-07
0.00106362
-6.73254e-07
8.6289e-07
-1.2903e-07
4.00124e-07
-8.02831e-07
-1.42626e-06
-2.56906e-07
0.00106714
1.39097e-06
-0.00106581
6.76395e-07
-1.60336e-06
-8.97564e-08
-6.46223e-07
-1.38589e-06
-2.23454e-07
-7.88296e-07
4.40061e-07
9.06132e-07
0.00106758
1.3913e-06
-0.00106624
6.71294e-07
-1.60871e-06
-8.98777e-08
-6.46484e-07
-1.38894e-06
-2.23548e-07
-7.88635e-07
4.42881e-07
-6.883e-07
-6.9559e-07
0.00025972
-8.66996e-07
0.000262832
-0.000260655
-2.04665e-07
-1.9951e-07
7.62823e-07
0.00106422
-6.68005e-07
8.18612e-07
-1.31419e-07
3.97186e-07
-8.02876e-07
-1.42359e-06
-2.56848e-07
-1.64224e-06
1.62775e-06
7.69443e-07
0.0010633
-6.73231e-07
8.54849e-07
-1.29061e-07
3.94706e-07
-8.0257e-07
-1.42066e-06
-2.56748e-07
0.00106817
1.39251e-06
-0.00106685
6.75267e-07
-1.56536e-06
-9.45041e-08
-6.41245e-07
-1.38359e-06
-2.21072e-07
-7.88624e-07
4.42759e-07
8.95452e-07
0.00106726
1.39106e-06
-0.00106592
6.76456e-07
-1.60079e-06
-9.22492e-08
-6.46415e-07
-1.38602e-06
-2.23406e-07
-7.8834e-07
4.42885e-07
1.62233e-06
7.69458e-07
0.0010631
-6.73011e-07
8.52147e-07
-1.31397e-07
3.94618e-07
-8.02498e-07
-2.56794e-07
-1.42057e-06
1.39203e-06
-0.00106659
6.80659e-07
-1.57318e-06
-9.68371e-08
-6.41089e-07
-1.38351e-06
-2.21104e-07
4.42606e-07
-7.88446e-07
8.9804e-07
0.00106705
1.38576e-06
-0.00106571
6.76498e-07
-1.60073e-06
-9.21432e-08
-6.46249e-07
-1.38596e-06
-2.2348e-07
-7.88289e-07
4.40077e-07
-6.91038e-07
-6.93101e-07
0.000259682
-8.5889e-07
0.00026278
-0.000260621
-2.04875e-07
-1.99515e-07
1.62303e-06
7.57789e-07
0.00106414
-6.68045e-07
8.13181e-07
-1.36354e-07
3.91951e-07
-8.00083e-07
-2.61574e-07
-1.41809e-06
1.39202e-06
-0.00106626
6.75589e-07
-1.56261e-06
-9.68296e-08
-6.41029e-07
-1.37788e-06
-2.23452e-07
4.34448e-07
-7.88358e-07
8.61574e-07
0.00106808
1.39237e-06
-0.00106675
6.75354e-07
-1.56281e-06
-9.69664e-08
-6.4132e-07
-1.38619e-06
-2.23461e-07
-7.91238e-07
4.4004e-07
-0.000260629
-2.04749e-07
-1.9966e-07
1.60168e-06
1.56885e-06
-6.57458e-07
-6.65764e-07
0.000260959
-9.23992e-07
-8.87502e-07
0.000264088
-0.000261911
-1.85377e-07
-1.80262e-07
6.63175e-07
0.00106849
-6.4649e-07
9.06651e-07
-8.50972e-08
4.43828e-07
-7.89116e-07
-1.38395e-06
-2.22401e-07
-1.60707e-06
1.36599e-06
6.73822e-07
0.00106891
-6.46731e-07
9.12105e-07
-8.51617e-08
4.49422e-07
-7.92084e-07
-1.38963e-06
-2.17663e-07
0.0010725
1.35674e-06
-0.00107118
6.52061e-07
-1.60366e-06
-7.21548e-08
-6.41913e-07
-1.39443e-06
-2.08154e-07
-7.92454e-07
4.55e-07
9.29515e-07
0.00107292
1.35715e-06
-0.0010716
6.52309e-07
-1.60901e-06
-6.98409e-08
-6.44802e-07
-1.40279e-06
-2.03377e-07
-7.98054e-07
4.6338e-07
-6.60472e-07
-6.6272e-07
0.000260979
-8.90201e-07
0.000264117
-0.000261937
-1.82717e-07
-1.77471e-07
6.62116e-07
0.00106953
-6.44201e-07
8.70275e-07
-8.98243e-08
4.46498e-07
-7.92041e-07
-1.38956e-06
-2.17611e-07
-1.59908e-06
1.36584e-06
6.68553e-07
0.0010686
-6.46696e-07
9.04048e-07
-8.5152e-08
4.46641e-07
-7.91758e-07
-1.38671e-06
-2.17499e-07
0.00107353
1.35823e-06
-0.0010722
6.51058e-07
-1.568e-06
-7.44777e-08
-6.39536e-07
-1.39737e-06
-2.03343e-07
-7.9805e-07
4.5772e-07
9.2408e-07
0.0010726
1.357e-06
-0.00107128
6.52287e-07
-1.60368e-06
-6.98193e-08
-6.44753e-07
-1.3971e-06
-2.0322e-07
-7.97729e-07
4.57827e-07
1.37076e-06
6.63298e-07
0.0010684
-6.43832e-07
9.01311e-07
-8.98327e-08
4.46505e-07
-7.91737e-07
-2.20006e-07
-1.38668e-06
1.35781e-06
-0.00107194
6.51228e-07
-1.57058e-06
-7.43737e-08
-6.39354e-07
-1.39467e-06
-2.05799e-07
4.54874e-07
-7.95281e-07
9.18609e-07
0.0010724
1.35671e-06
-0.00107108
6.52208e-07
-1.59839e-06
-7.44751e-08
-6.39193e-07
-1.39449e-06
-2.0575e-07
-7.95072e-07
4.54989e-07
-6.60566e-07
-6.65267e-07
0.000260943
-8.8473e-07
0.000264068
-0.000261896
-1.85441e-07
-1.7753e-07
1.36695e-06
6.67431e-07
0.00106943
-6.38905e-07
8.62177e-07
-9.46156e-08
4.43855e-07
-7.89366e-07
-2.20002e-07
-1.38428e-06
1.35767e-06
-0.0010716
6.51302e-07
-1.56525e-06
-7.6702e-08
-6.36627e-07
-1.39436e-06
-2.03327e-07
4.5488e-07
-7.97789e-07
8.84695e-07
0.00107344
1.35813e-06
-0.00107212
6.51133e-07
-1.56548e-06
-7.68555e-08
-6.36935e-07
-1.3921e-06
-2.05748e-07
-7.95347e-07
4.52327e-07
-0.000261909
-1.82913e-07
-1.77678e-07
1.60271e-06
1.567e-06
-6.48888e-07
-6.54587e-07
0.000262222
-9.51557e-07
-9.14916e-07
0.000265307
-0.000263129
-1.58423e-07
-1.53231e-07
6.45424e-07
0.00107381
-6.39345e-07
9.30687e-07
-6.61885e-08
4.60192e-07
-7.91365e-07
-1.39573e-06
-2.01633e-07
-1.60806e-06
1.348e-06
6.45667e-07
0.00107424
-6.42231e-07
9.36219e-07
-6.38815e-08
4.68588e-07
-7.96964e-07
-1.4041e-06
-1.96848e-07
0.00107767
1.31248e-06
-0.0010764
6.23245e-07
-1.59771e-06
-4.82562e-08
-6.29904e-07
-1.39635e-06
-1.80428e-07
-7.84273e-07
4.77799e-07
9.57105e-07
0.0010781
1.31292e-06
-0.00107682
6.23531e-07
-1.60308e-06
-4.59911e-08
-6.32795e-07
-1.40473e-06
-1.75638e-07
-7.8988e-07
4.86232e-07
-6.51969e-07
-6.56694e-07
0.000262248
-9.17616e-07
0.000265336
-0.000263155
-1.55747e-07
-1.50446e-07
6.44441e-07
0.00107485
-6.36958e-07
8.94159e-07
-6.84969e-08
4.62922e-07
-7.96965e-07
-1.39868e-06
-1.96819e-07
-1.60272e-06
1.34784e-06
6.45646e-07
0.00107392
-6.42181e-07
9.3078e-07
-6.38594e-08
4.63033e-07
-7.96642e-07
-1.3984e-06
-1.96694e-07
0.00107871
1.31379e-06
-0.00107744
6.22268e-07
-1.56186e-06
-5.05163e-08
-6.27496e-07
-1.39927e-06
-1.75603e-07
-7.89879e-07
4.80567e-07
9.51656e-07
0.00107778
1.31271e-06
-0.00107651
6.2346e-07
-1.59771e-06
-4.5963e-08
-6.32736e-07
-1.399e-06
-1.75483e-07
-7.89556e-07
4.80668e-07
1.34754e-06
6.45551e-07
0.00107372
-6.36615e-07
9.25295e-07
-6.84979e-08
4.60186e-07
-7.93982e-07
-1.99225e-07
-1.3958e-06
1.31344e-06
-0.00107717
6.22432e-07
-1.56446e-06
-5.04282e-08
-6.27329e-07
-1.39656e-06
-1.78072e-07
4.777e-07
-7.87106e-07
9.4613e-07
0.00107757
1.31243e-06
-0.0010763
6.23362e-07
-1.59242e-06
-5.05312e-08
-6.27159e-07
-1.3964e-06
-1.7802e-07
-7.86896e-07
4.778e-07
-6.49382e-07
-6.56678e-07
0.000262207
-9.12147e-07
0.000265286
-0.000263114
-1.58447e-07
-1.50497e-07
1.34894e-06
6.44493e-07
0.00107476
-6.34348e-07
8.91352e-07
-7.08618e-08
4.57523e-07
-7.9426e-07
-1.99222e-07
-1.3934e-06
1.31322e-06
-0.00107683
6.22447e-07
-1.55908e-06
-5.26962e-08
-6.24573e-07
-1.39627e-06
-1.75597e-07
4.77693e-07
-7.89626e-07
9.121e-07
0.00107862
1.31369e-06
-0.00107735
6.22305e-07
-1.55932e-06
-5.28395e-08
-6.24862e-07
-1.394e-06
-1.78008e-07
-7.87176e-07
4.75134e-07
-0.000263127
-1.5595e-07
-1.50648e-07
1.5957e-06
1.55981e-06
-6.32596e-07
-6.38294e-07
0.000263422
-9.7799e-07
-9.41213e-07
0.000266452
-0.000264275
-1.3159e-07
-1.26313e-07
6.16161e-07
0.00107893
-6.26547e-07
9.58384e-07
-4.25798e-08
4.84033e-07
-7.81079e-07
-1.39573e-06
-1.73203e-07
-1.60108e-06
1.30061e-06
6.16467e-07
0.00107935
-6.29446e-07
9.63936e-07
-4.03358e-08
4.92459e-07
-7.86707e-07
-1.40412e-06
-1.68427e-07
0.0010826
1.26209e-06
-0.0010814
5.95707e-07
-1.58952e-06
-2.69729e-08
-6.16737e-07
-1.39238e-06
-1.51974e-07
-7.70171e-07
5.02861e-07
9.83562e-07
0.00108303
1.2626e-06
-0.00108182
5.96051e-07
-1.59492e-06
-2.48002e-08
-6.19632e-07
-1.40079e-06
-1.47172e-07
-7.75793e-07
5.11344e-07
-6.35709e-07
-6.4042e-07
0.000263448
-9.43908e-07
0.000266481
-0.000264301
-1.28893e-07
-1.23535e-07
6.15194e-07
0.00107997
-6.24132e-07
9.21709e-07
-4.48199e-08
4.86802e-07
-7.86691e-07
-1.39865e-06
-1.68377e-07
-1.59571e-06
1.30037e-06
6.16388e-07
0.00107903
-6.2938e-07
9.58483e-07
-4.0305e-08
4.86908e-07
-7.86366e-07
-1.39838e-06
-1.68255e-07
0.00108364
1.26324e-06
-0.00108243
5.94742e-07
-1.55349e-06
-2.91399e-08
-6.14301e-07
-1.39529e-06
-1.47145e-07
-7.75786e-07
5.0566e-07
9.78093e-07
0.00108271
1.26233e-06
-0.0010815
5.95964e-07
-1.58952e-06
-2.47699e-08
-6.19565e-07
-1.39501e-06
-1.47017e-07
-7.7546e-07
5.05768e-07
1.30008e-06
6.16254e-07
0.00107883
-6.23799e-07
9.52947e-07
-4.48372e-08
4.84029e-07
-7.83707e-07
-1.70797e-07
-1.39578e-06
1.26294e-06
-0.00108217
5.94942e-07
-1.55613e-06
-2.90746e-08
-6.1416e-07
-1.39257e-06
-1.4962e-07
5.02778e-07
-7.73009e-07
9.72518e-07
0.0010825
1.26202e-06
-0.0010813
5.95796e-07
-1.58422e-06
-2.91639e-08
-6.13982e-07
-1.39243e-06
-1.49578e-07
-7.72806e-07
5.02863e-07
-6.33065e-07
-6.40401e-07
0.000263407
-9.38439e-07
0.000266432
-0.00026426
-1.31575e-07
-1.23593e-07
1.3013e-06
6.15219e-07
0.00107988
-6.21496e-07
9.18887e-07
-4.71262e-08
4.81362e-07
-7.83986e-07
-1.70782e-07
-1.39337e-06
1.26265e-06
-0.00108183
5.94885e-07
-1.55069e-06
-3.12474e-08
-6.11367e-07
-1.39229e-06
-1.47158e-07
5.02756e-07
-7.75546e-07
9.38372e-07
0.00108355
1.26311e-06
-0.00108234
5.94773e-07
-1.55095e-06
-3.1379e-08
-6.11658e-07
-1.39001e-06
-1.49559e-07
-7.7308e-07
5.00191e-07
-0.000264273
-1.29117e-07
-1.23741e-07
1.58766e-06
1.5516e-06
-6.15753e-07
-6.21456e-07
0.00026455
-1.00155e-06
-9.64622e-07
0.000267524
-0.000265348
-1.07438e-07
-1.02091e-07
5.89874e-07
0.0010838
-6.13813e-07
9.84102e-07
-2.23465e-08
5.09003e-07
-7.66492e-07
-1.39115e-06
-1.45237e-07
-1.59306e-06
1.25099e-06
5.90202e-07
0.00108422
-6.1671e-07
9.8968e-07
-2.02102e-08
5.17495e-07
-7.72128e-07
-1.39956e-06
-1.40451e-07
0.00108729
1.21525e-06
-0.00108614
5.73226e-07
-1.58248e-06
-1.00448e-08
-6.05756e-07
-1.38659e-06
-1.2581e-07
-7.5497e-07
5.27478e-07
1.00716e-06
0.00108771
1.21569e-06
-0.00108656
5.73434e-07
-1.58787e-06
-8.07566e-09
-6.08616e-07
-1.39498e-06
-1.20971e-07
-7.60557e-07
5.36036e-07
-6.1888e-07
-6.23604e-07
0.000264576
-9.67355e-07
0.000267553
-0.000265375
-1.04659e-07
-9.93028e-08
5.88983e-07
0.00108484
-6.11378e-07
9.4728e-07
-2.44901e-08
5.11804e-07
-7.72114e-07
-1.39406e-06
-1.40415e-07
-1.58766e-06
1.25073e-06
5.90137e-07
0.0010839
-6.16641e-07
9.84206e-07
-2.01787e-08
5.11917e-07
-7.71786e-07
-1.39378e-06
-1.40279e-07
0.00108833
1.2162e-06
-0.00108718
5.72164e-07
-1.54628e-06
-1.20283e-08
-6.0329e-07
-1.38951e-06
-1.21022e-07
-7.60619e-07
5.30268e-07
1.00166e-06
0.00108739
1.21551e-06
-0.00108624
5.73426e-07
-1.58247e-06
-8.06148e-09
-6.08578e-07
-1.38922e-06
-1.20855e-07
-7.60276e-07
5.30415e-07
1.2504e-06
5.89992e-07
0.0010837
-6.11061e-07
9.78606e-07
-2.45185e-08
5.09001e-07
-7.69134e-07
-1.42849e-07
-1.3912e-06
1.21589e-06
-0.00108691
5.72287e-07
-1.54888e-06
-1.19503e-08
-6.03123e-07
-1.38679e-06
-1.23491e-07
5.27363e-07
-7.57835e-07
9.96003e-07
0.00108719
1.21511e-06
-0.00108604
5.73221e-07
-1.57719e-06
-1.20717e-08
-6.02999e-07
-1.38666e-06
-1.23451e-07
-7.5764e-07
5.27453e-07
-6.16196e-07
-6.23589e-07
0.000264535
-9.61823e-07
0.000267503
-0.000265333
-1.07397e-07
-9.93834e-08
1.25145e-06
5.88976e-07
0.00108475
-6.08728e-07
9.44432e-07
-2.67025e-08
5.06325e-07
-7.69408e-07
-1.42831e-07
-1.38878e-06
1.21558e-06
-0.00108657
5.72241e-07
-1.54345e-06
-1.39917e-08
-6.0035e-07
-1.38653e-06
-1.21062e-07
5.27324e-07
-7.60396e-07
9.61743e-07
0.00108824
1.21605e-06
-0.00108709
5.72141e-07
-1.54374e-06
-1.41123e-08
-6.00637e-07
-1.38424e-06
-1.23441e-07
-7.5792e-07
5.24756e-07
-0.000265346
-1.04994e-07
-9.95503e-08
1.58095e-06
1.54473e-06
-6.0075e-07
-6.06556e-07
0.000265606
-1.02415e-06
-9.84491e-07
0.00026853
-0.000266352
-8.71878e-08
-8.15266e-08
5.68449e-07
0.00108841
-6.03389e-07
1.00971e-06
-4.73549e-09
5.33429e-07
-7.51233e-07
-1.38502e-06
-1.19779e-07
-1.58637e-06
1.2051e-06
5.68502e-07
0.00108885
-6.06282e-07
1.01261e-06
-4.72501e-09
5.41987e-07
-7.56831e-07
-1.39342e-06
-1.14953e-07
0.00109173
1.17503e-06
-0.00109064
5.55174e-07
-1.58029e-06
9.52564e-09
-6.00739e-07
-1.38066e-06
-1.03519e-07
-7.40747e-07
5.5002e-07
1.02702e-06
0.00109217
1.17527e-06
-0.00109107
5.55209e-07
-1.58305e-06
9.519e-09
-6.00899e-07
-1.38638e-06
-9.87232e-08
-7.46362e-07
5.5583e-07
-6.03845e-07
-6.08704e-07
0.000265632
-9.87197e-07
0.000268556
-0.000266379
-8.44884e-08
-7.87585e-08
5.67405e-07
0.00108947
-6.00955e-07
9.70016e-07