/*--------------------------------*- C++ -*----------------------------------*\
| =========                 |                                                 |
| \\      /  F ield         | OpenFOAM: The Open Source CFD Toolbox           |
|  \\    /   O peration     | Version:  v1912                                 |
|   \\  /    A nd           | Website:  www.openfoam.com                      |
|    \\/     M anipulation  |                                                 |
\*---------------------------------------------------------------------------*/
FoamFile
{
    version     2.0;
    format      ascii;
    class       volVectorField;
    location    "60";
    object      U;
}
// * * * * * * * * * * * * * * * * * * * * * * * * * * * * * * * * * * * * * //

dimensions      [0 1 -1 0 0 0 0];


internalField   nonuniform List<vector> 
57100
(
(0.000106008 0.000105944 0.100294)
(-0.00018886 0.000120353 0.10038)
(0.000120441 -0.000188863 0.10038)
(-0.000240587 -0.000240605 0.100392)
(9.5695e-05 9.56358e-05 0.100865)
(-0.000152069 9.2047e-05 0.100944)
(9.20556e-05 -0.000152062 0.100944)
(-0.000192834 -0.000192904 0.100967)
(9.7595e-05 9.7572e-05 0.101371)
(-0.000153428 9.04114e-05 0.101449)
(9.03976e-05 -0.000153433 0.101449)
(-0.000197316 -0.000197379 0.101472)
(9.53818e-05 9.53615e-05 0.101893)
(-0.00015039 8.73656e-05 0.101958)
(8.73803e-05 -0.000150392 0.101958)
(-0.000195049 -0.000195102 0.101965)
(9.21123e-05 9.20998e-05 0.102399)
(-0.000144357 8.29339e-05 0.102446)
(8.29519e-05 -0.000144359 0.102447)
(-0.000190041 -0.000190097 0.102432)
(8.88457e-05 8.88457e-05 0.102886)
(-0.000138337 7.89397e-05 0.102912)
(7.89618e-05 -0.000138342 0.102912)
(-0.000184741 -0.000184798 0.102871)
(8.58393e-05 8.58527e-05 0.103354)
(-0.000132912 7.5618e-05 0.103354)
(7.56618e-05 -0.000132922 0.103354)
(-0.000180113 -0.000180186 0.103282)
(8.3336e-05 8.32942e-05 0.103804)
(-0.000128422 7.31894e-05 0.103774)
(7.31859e-05 -0.000128415 0.103774)
(-0.000176406 -0.000176486 0.103665)
(8.12821e-05 8.12197e-05 0.104238)
(-0.000124878 7.15974e-05 0.104175)
(7.15878e-05 -0.00012487 0.104175)
(-0.000173924 -0.000173979 0.104024)
(7.89726e-05 7.89181e-05 0.104658)
(-0.000120979 6.97505e-05 0.104558)
(6.97409e-05 -0.000120972 0.104558)
(-0.000171276 -0.00017135 0.10436)
(7.56597e-05 7.56161e-05 0.105063)
(-0.000115149 6.64902e-05 0.104922)
(6.64868e-05 -0.000115161 0.104922)
(-0.000166667 -0.000166749 0.104673)
(6.66247e-05 6.66166e-05 0.105436)
(-0.00010286 5.95089e-05 0.105252)
(5.94914e-05 -0.000102852 0.105252)
(-0.00015562 -0.00015568 0.10495)
(4.31512e-05 4.31603e-05 0.105721)
(-6.40884e-05 3.73627e-05 0.105499)
(3.73447e-05 -6.40554e-05 0.105499)
(-0.000119569 -0.000119564 0.105148)
(2.50878e-05 2.5077e-05 0.105873)
(-3.71673e-05 2.28689e-05 0.105608)
(2.28742e-05 -3.71907e-05 0.105608)
(-8.85151e-05 -8.85424e-05 0.10522)
(1.28684e-05 1.28506e-05 0.105951)
(-1.95826e-05 1.30155e-05 0.105643)
(1.30272e-05 -1.9591e-05 0.105643)
(-7.23554e-05 -7.23924e-05 0.10522)
(3.22618e-06 3.23353e-06 0.105981)
(-6.62932e-06 5.17488e-06 0.105649)
(5.16696e-06 -6.64785e-06 0.105649)
(-6.21491e-05 -6.2175e-05 0.105205)
(-5.38502e-07 -5.21687e-07 0.105987)
(-1.94099e-06 2.22217e-06 0.105647)
(2.20333e-06 -1.92747e-06 0.105647)
(-5.8743e-05 -5.87526e-05 0.105198)
(-1.31147e-06 -1.29761e-06 0.105988)
(-1.08222e-06 1.69914e-06 0.105647)
(1.68579e-06 -1.08226e-06 0.105646)
(-5.82661e-05 -5.82841e-05 0.105196)
(-1.40282e-06 -1.38514e-06 0.105988)
(-1.02346e-06 1.66375e-06 0.105646)
(1.64514e-06 -1.0273e-06 0.105646)
(-5.82167e-05 -5.82354e-05 0.105196)
(-1.40956e-06 -1.39849e-06 0.105988)
(-1.02494e-06 1.6411e-06 0.105646)
(1.63733e-06 -1.0199e-06 0.105646)
(-5.82222e-05 -5.82367e-05 0.105196)
(-1.41063e-06 -1.41426e-06 0.105988)
(-1.01269e-06 1.63341e-06 0.105646)
(1.62548e-06 -1.00772e-06 0.105646)
(-5.81889e-05 -5.82059e-05 0.105196)
(-1.42944e-06 -1.42484e-06 0.105988)
(-1.00566e-06 1.62015e-06 0.105646)
(1.62888e-06 -1.01525e-06 0.105646)
(-5.81952e-05 -5.82114e-05 0.105196)
(-1.42788e-06 -1.41693e-06 0.105988)
(-1.02136e-06 1.63499e-06 0.105646)
(1.61432e-06 -1.0101e-06 0.105646)
(-5.82083e-05 -5.82251e-05 0.105196)
(-1.42477e-06 -1.41528e-06 0.105988)
(-1.01459e-06 1.62746e-06 0.105646)
(1.62138e-06 -1.01467e-06 0.105646)
(-5.82069e-05 -5.82266e-05 0.105196)
(-1.42989e-06 -1.42006e-06 0.105988)
(-1.0083e-06 1.62592e-06 0.105646)
(1.62305e-06 -1.01395e-06 0.105646)
(-5.81847e-05 -5.8203e-05 0.105196)
(-1.43081e-06 -1.42108e-06 0.105988)
(-1.0167e-06 1.62965e-06 0.105646)
(1.62835e-06 -1.02364e-06 0.105646)
(-5.82105e-05 -5.82276e-05 0.105196)
(-1.42549e-06 -1.41419e-06 0.105988)
(-1.01347e-06 1.62941e-06 0.105646)
(1.61653e-06 -1.01137e-06 0.105646)
(-5.82074e-05 -5.82231e-05 0.105196)
(-1.43444e-06 -1.4271e-06 0.105988)
(-1.00761e-06 1.62099e-06 0.105646)
(1.62417e-06 -1.01719e-06 0.105646)
(-5.81918e-05 -5.82106e-05 0.105196)
(-1.42427e-06 -1.41742e-06 0.105988)
(-1.01446e-06 1.6295e-06 0.105646)
(1.6263e-06 -1.02052e-06 0.105646)
(-5.81976e-05 -5.82149e-05 0.105196)
(-1.42689e-06 -1.4223e-06 0.105988)
(-1.01202e-06 1.62425e-06 0.105646)
(1.6149e-06 -1.01399e-06 0.105646)
(-5.816e-05 -5.81772e-05 0.105196)
(0.000133872 0.000133859 0.100279)
(0.000122672 0.000150717 0.100225)
(-0.000122665 0.000150694 0.100225)
(-0.00013387 0.000133826 0.100279)
(0.000150739 0.000122625 0.100225)
(0.000150714 -0.000122648 0.100225)
(8.89288e-05 8.88733e-05 0.100148)
(-8.89171e-05 8.88687e-05 0.100148)
(8.89005e-05 -8.89271e-05 0.100148)
(-8.88961e-05 -8.89215e-05 0.100148)
(-0.000150736 0.000122623 0.100225)
(-0.000150727 -0.000122637 0.100225)
(0.000133867 -0.000133892 0.100279)
(0.000122627 -0.000150748 0.100225)
(-0.000122624 -0.000150723 0.100225)
(-0.000133881 -0.000133859 0.100279)
(0.000240632 0.0002406 0.100392)
(0.000100832 0.000100735 0.100893)
(0.000120487 0.000188755 0.10038)
(-0.000120441 0.000188791 0.10038)
(8.26948e-05 0.000136364 0.100825)
(-8.266e-05 0.000136378 0.100825)
(-0.000240635 0.000240557 0.100392)
(-0.000100805 0.000100683 0.100892)
(0.000188898 0.000120387 0.10038)
(0.000188842 -0.00012046 0.10038)
(0.000136377 8.2654e-05 0.100826)
(0.000136382 -8.26799e-05 0.100826)
(-0.000188824 -0.000120451 0.10038)
(-0.000136336 8.26618e-05 0.100825)
(-0.000136355 -8.26814e-05 0.100826)
(0.000240562 -0.000240655 0.100392)
(0.000100788 -0.000100828 0.100893)
(-0.000120422 -0.000188885 0.10038)
(8.26642e-05 -0.000136331 0.100826)
(-8.26474e-05 -0.00013635 0.100826)
(-0.000100788 -0.000100832 0.100893)
(0.000192908 0.000192782 0.100967)
(9.97447e-05 9.96772e-05 0.101395)
(9.2058e-05 0.000152101 0.100944)
(-9.20334e-05 0.000152107 0.100944)
(9.12783e-05 0.000154029 0.10132)
(-9.12787e-05 0.000154038 0.10132)
(-0.000192883 0.000192724 0.100967)
(-9.97413e-05 9.96695e-05 0.101395)
(0.000152109 9.20285e-05 0.100944)
(0.000152104 -9.20426e-05 0.100944)
(0.000154009 9.12792e-05 0.101321)
(0.000154031 -9.12819e-05 0.101321)
(-0.000152093 -9.2049e-05 0.100944)
(-0.000153998 9.13032e-05 0.10132)
(-0.000154016 -9.1278e-05 0.101321)
(0.000192826 -0.000192913 0.100967)
(9.97189e-05 -9.97435e-05 0.101396)
(-9.20365e-05 -0.000152088 0.100944)
(9.12899e-05 -0.000153996 0.101321)
(-9.12949e-05 -0.000154017 0.101321)
(-9.97366e-05 -9.97599e-05 0.101395)
(0.000197369 0.000197259 0.101471)
(9.14314e-05 9.13655e-05 0.101893)
(9.03776e-05 0.000153471 0.101449)
(-9.03833e-05 0.000153474 0.101449)
(8.83574e-05 0.000151667 0.101832)
(-8.8337e-05 0.000151658 0.101832)
(-0.000197364 0.00019724 0.101471)
(-9.14094e-05 9.13562e-05 0.101893)
(0.000153443 9.03916e-05 0.101449)
(0.000153469 -9.03836e-05 0.101449)
(0.00015162 8.8363e-05 0.101832)
(0.000151641 -8.83343e-05 0.101832)
(-0.000153458 -9.03869e-05 0.101449)
(-0.000151611 8.8361e-05 0.101832)
(-0.000151649 -8.83522e-05 0.101832)
(0.000197296 -0.000197377 0.101472)
(9.13739e-05 -9.14345e-05 0.101893)
(-9.04096e-05 -0.000153461 0.101449)
(8.83702e-05 -0.000151611 0.101832)
(-8.83634e-05 -0.000151625 0.101832)
(-9.14563e-05 -9.14711e-05 0.101893)
(0.000195069 0.000194966 0.101965)
(8.13457e-05 8.12878e-05 0.102366)
(8.73645e-05 0.000150449 0.101958)
(-8.73427e-05 0.00015044 0.101958)
(8.40217e-05 0.000145971 0.102326)
(-8.39988e-05 0.000145963 0.102326)
(-0.00019505 0.000194944 0.101965)
(-8.13254e-05 8.12839e-05 0.102366)
(0.000150403 8.73708e-05 0.101958)
(0.000150422 -8.73388e-05 0.101958)
(0.000145919 8.40277e-05 0.102326)
(0.00014594 -8.39889e-05 0.102326)
(-0.000150431 -8.73579e-05 0.101958)
(-0.00014591 8.40247e-05 0.102326)
(-0.000145954 -8.40147e-05 0.102326)
(0.000194969 -0.000195083 0.101965)
(8.12835e-05 -8.13489e-05 0.102366)
(-8.73683e-05 -0.000150402 0.101958)
(8.40412e-05 -0.000145909 0.102326)
(-8.40219e-05 -0.000145914 0.102326)
(-8.13806e-05 -8.13979e-05 0.102366)
(0.000190053 0.000189958 0.102432)
(7.15915e-05 7.15388e-05 0.102811)
(8.29313e-05 0.000144419 0.102446)
(-8.29104e-05 0.000144415 0.102446)
(7.98322e-05 0.00013981 0.102798)
(-7.98083e-05 0.000139809 0.102798)
(-0.000190036 0.000189943 0.102432)
(-7.15728e-05 7.15409e-05 0.102811)
(0.000144368 8.29371e-05 0.102446)
(0.000144388 -8.28981e-05 0.102447)
(0.000139753 7.98369e-05 0.102798)
(0.000139775 -7.97922e-05 0.102798)
(-0.000144404 -8.29226e-05 0.102446)
(-0.000139745 7.98368e-05 0.102798)
(-0.000139796 -7.98216e-05 0.102798)
(0.00018995 -0.000190068 0.102432)
(7.1526e-05 -7.15994e-05 0.102812)
(-8.2931e-05 -0.00014436 0.102447)
(7.9855e-05 -0.000139747 0.102798)
(-7.98311e-05 -0.000139745 0.102798)
(-7.16411e-05 -7.16597e-05 0.102812)
(0.000184745 0.000184651 0.102871)
(6.28772e-05 6.28302e-05 0.103229)
(7.89251e-05 0.000138401 0.102912)
(-7.89012e-05 0.000138404 0.102912)
(7.63715e-05 0.000134236 0.103246)
(-7.63287e-05 0.000134227 0.103246)
(-0.000184728 0.00018464 0.102871)
(-6.28557e-05 6.28192e-05 0.103229)
(0.000138347 7.89427e-05 0.102912)
(0.000138366 -7.88849e-05 0.102912)
(0.000134182 7.63788e-05 0.103246)
(0.000134199 -7.6318e-05 0.103246)
(-0.00013839 -7.89239e-05 0.102912)
(-0.000134172 7.63694e-05 0.103246)
(-0.000134229 -7.63631e-05 0.103246)
(0.000184637 -0.000184761 0.102871)
(6.28164e-05 -6.2889e-05 0.103229)
(-7.89346e-05 -0.000138337 0.102912)
(7.64039e-05 -0.000134179 0.103246)
(-7.63738e-05 -0.000134175 0.103246)
(-6.29512e-05 -6.29722e-05 0.103229)
(0.000180111 0.000179998 0.103282)
(5.55729e-05 5.5577e-05 0.10362)
(7.5599e-05 0.000132972 0.103354)
(-7.55595e-05 0.000132964 0.103354)
(7.37858e-05 0.000129602 0.103671)
(-7.37579e-05 0.000129596 0.103671)
(-0.000180088 0.00017996 0.103282)
(-5.55698e-05 5.5606e-05 0.10362)
(0.000132923 7.56313e-05 0.103354)
(0.000132936 -7.555e-05 0.103354)
(0.000129535 7.37603e-05 0.103671)
(0.000129562 -7.3743e-05 0.103671)
(-0.000132968 -7.56139e-05 0.103354)
(-0.000129527 7.37421e-05 0.103671)
(-0.000129561 -7.37211e-05 0.103671)
(0.000179971 -0.00018014 0.103282)
(5.5581e-05 -5.55601e-05 0.10362)
(-7.56286e-05 -0.000132913 0.103354)
(7.37745e-05 -0.000129527 0.103671)
(-7.37226e-05 -0.000129503 0.103671)
(-5.55671e-05 -5.55711e-05 0.10362)
(0.000176482 0.00017641 0.103665)
(5.00193e-05 5.00346e-05 0.103986)
(7.3269e-05 0.0001285 0.103774)
(-7.3245e-05 0.000128498 0.103774)
(7.19885e-05 0.000125687 0.104076)
(-7.19661e-05 0.000125693 0.104076)
(-0.000176478 0.000176416 0.103665)
(-5.00306e-05 5.00832e-05 0.103986)
(0.000128432 7.32075e-05 0.103774)
(0.000128464 -7.3227e-05 0.103774)
(0.000125623 7.19012e-05 0.104077)
(0.000125662 -7.19599e-05 0.104077)
(-0.000128452 -7.31652e-05 0.103774)
(-0.000125612 7.18832e-05 0.104077)
(-0.000125655 -7.18984e-05 0.104077)
(0.000176402 -0.000176507 0.103665)
(5.00234e-05 -4.99676e-05 0.103986)
(-7.31316e-05 -0.000128387 0.103774)
(7.18678e-05 -0.000125601 0.104077)
(-7.18384e-05 -0.000125584 0.104077)
(-4.99627e-05 -4.99502e-05 0.103986)
(0.000174038 0.000173968 0.104024)
(4.5334e-05 4.53312e-05 0.10433)
(7.17052e-05 0.000124954 0.104175)
(-7.16821e-05 0.00012496 0.104175)
(7.01795e-05 0.000121814 0.104464)
(-7.01555e-05 0.000121824 0.104464)
(-0.000174044 0.000173989 0.104024)
(-4.53472e-05 4.53872e-05 0.104331)
(0.000124891 7.16216e-05 0.104175)
(0.000124932 -7.16798e-05 0.104175)
(0.000121749 7.0099e-05 0.104464)
(0.000121795 -7.0155e-05 0.104464)
(-0.000124926 -7.16199e-05 0.104175)
(-0.00012174 7.00766e-05 0.104464)
(-0.000121792 -7.01035e-05 0.104464)
(0.00017395 -0.00017402 0.104024)
(4.53254e-05 -4.53031e-05 0.104331)
(-7.15588e-05 -0.000124854 0.104175)
(7.00629e-05 -0.000121731 0.104464)
(-7.00352e-05 -0.00012172 0.104464)
(-4.52875e-05 -4.52986e-05 0.104331)
(0.000171378 0.000171297 0.10436)
(4.06931e-05 4.06871e-05 0.104652)
(6.98581e-05 0.000121056 0.104558)
(-6.98314e-05 0.000121065 0.104558)
(6.80168e-05 0.00011769 0.104833)
(-6.79802e-05 0.000117684 0.104833)
(-0.000171389 0.000171325 0.10436)
(-4.06908e-05 4.07311e-05 0.104652)
(0.000120993 6.97795e-05 0.104558)
(0.000121036 -6.98329e-05 0.104558)
(0.000117606 6.79448e-05 0.104833)
(0.000117659 -6.79877e-05 0.104833)
(-0.000121027 -6.97827e-05 0.104558)
(-0.00011759 6.7896e-05 0.104833)
(-0.000117654 -6.79447e-05 0.104833)
(0.000171283 -0.000171377 0.10436)
(4.06762e-05 -4.06764e-05 0.104652)
(-6.97137e-05 -0.000120961 0.104558)
(6.78967e-05 -0.000117587 0.104833)
(-6.78735e-05 -0.000117584 0.104833)
(-4.06612e-05 -4.06871e-05 0.104652)
(0.000166748 0.000166672 0.104673)
(3.18983e-05 3.17508e-05 0.104941)
(6.66215e-05 0.000115252 0.104922)
(-6.65921e-05 0.000115244 0.104922)
(6.23695e-05 0.000107922 0.105174)
(-6.23489e-05 0.000107873 0.105174)
(-0.000166754 0.000166684 0.104673)
(-3.19739e-05 3.18979e-05 0.104941)
(0.000115182 6.65369e-05 0.104922)
(0.000115223 -6.65958e-05 0.104922)
(0.000107809 6.2348e-05 0.105174)
(0.000107868 -6.23463e-05 0.105174)
(-0.000115224 -6.6563e-05 0.104922)
(-0.000107844 6.22909e-05 0.105174)
(-0.000107898 -6.23072e-05 0.105174)
(0.000166654 -0.000166762 0.104673)
(3.1775e-05 -3.19272e-05 0.104941)
(-6.64773e-05 -0.000115147 0.104922)
(6.23097e-05 -0.000107808 0.105174)
(-6.22779e-05 -0.000107826 0.105174)
(-3.18616e-05 -3.19659e-05 0.104941)
(0.000155647 0.000155514 0.10495)
(1.6708e-06 1.69228e-06 0.105159)
(5.95987e-05 0.000102967 0.105252)
(-5.9616e-05 0.000102925 0.105252)
(4.31441e-05 7.43206e-05 0.105451)
(-4.31894e-05 7.43363e-05 0.105451)
(-0.000155676 0.00015561 0.10495)
(-1.6051e-06 1.65486e-06 0.105159)
(0.000102856 5.9527e-05 0.105252)
(0.000102918 -5.96017e-05 0.105252)
(7.42852e-05 4.31139e-05 0.105451)
(7.43563e-05 -4.31706e-05 0.105451)
(-0.000102932 -5.95699e-05 0.105252)
(-7.42883e-05 4.30919e-05 0.105451)
(-7.43376e-05 -4.3133e-05 0.105451)
(0.000155525 -0.000155648 0.10495)
(1.69104e-06 -1.64974e-06 0.105159)
(-5.94967e-05 -0.000102834 0.105252)
(4.3087e-05 -7.42718e-05 0.105451)
(-4.30607e-05 -7.42223e-05 0.105451)
(-1.62645e-06 -1.56302e-06 0.105159)
(0.000119621 0.000119605 0.105148)
(-3.07206e-05 -3.06864e-05 0.105248)
(3.74078e-05 6.41116e-05 0.105499)
(-3.74466e-05 6.4135e-05 0.105499)
(2.5642e-05 4.22206e-05 0.10559)
(-2.56518e-05 4.22599e-05 0.10559)
(-0.000119597 0.000119557 0.105148)
(3.07357e-05 -3.06859e-05 0.105248)
(6.40741e-05 3.73614e-05 0.105499)
(6.41437e-05 -3.74352e-05 0.105499)
(4.22042e-05 2.55755e-05 0.105591)
(4.22447e-05 -2.5638e-05 0.10559)
(-6.4114e-05 -3.73977e-05 0.105499)
(-4.21996e-05 2.55649e-05 0.105591)
(-4.22415e-05 -2.56226e-05 0.10559)
(0.000119608 -0.00011965 0.105148)
(-3.06678e-05 3.07522e-05 0.105248)
(-3.73308e-05 -6.40318e-05 0.105499)
(2.55606e-05 -4.22052e-05 0.105591)
(-2.55737e-05 -4.22039e-05 0.105591)
(3.06915e-05 3.0715e-05 0.105248)
(8.8527e-05 8.85007e-05 0.10522)
(-4.6921e-05 -4.69249e-05 0.105254)
(2.29673e-05 3.72238e-05 0.105608)
(-2.29507e-05 3.72421e-05 0.105608)
(1.55329e-05 2.38473e-05 0.105638)
(-1.5525e-05 2.38691e-05 0.105638)
(-8.85121e-05 8.84832e-05 0.10522)
(4.69605e-05 -4.69261e-05 0.105254)
(3.72092e-05 2.29057e-05 0.105608)
(3.72293e-05 -2.29445e-05 0.105608)
(2.3843e-05 1.54714e-05 0.105639)
(2.38734e-05 -1.55178e-05 0.105638)
(-3.72203e-05 -2.29356e-05 0.105608)
(-2.38083e-05 1.54642e-05 0.105639)
(-2.38394e-05 -1.55194e-05 0.105638)
(8.85082e-05 -8.85359e-05 0.10522)
(-4.69134e-05 4.69653e-05 0.105254)
(-2.28827e-05 -3.71932e-05 0.105608)
(1.54668e-05 -2.38063e-05 0.105639)
(-1.54613e-05 -2.3805e-05 0.105639)
(4.69332e-05 4.6936e-05 0.105254)
(7.23909e-05 7.23418e-05 0.10522)
(-5.76125e-05 -5.75989e-05 0.10524)
(1.30785e-05 1.9617e-05 0.105643)
(-1.30804e-05 1.96405e-05 0.105643)
(6.73818e-06 9.0599e-06 0.105648)
(-6.76257e-06 9.10285e-06 0.105648)
(-7.23776e-05 7.23264e-05 0.10522)
(5.76221e-05 -5.75869e-05 0.10524)
(1.96125e-05 1.30201e-05 0.105643)
(1.96461e-05 -1.30824e-05 0.105643)
(9.03884e-06 6.68987e-06 0.105649)
(9.06662e-06 -6.74624e-06 0.105648)
(-1.96226e-05 -1.30764e-05 0.105643)
(-9.0449e-06 6.68688e-06 0.105649)
(-9.10438e-06 -6.75394e-06 0.105648)
(7.23557e-05 -7.24016e-05 0.10522)
(-5.76217e-05 5.7614e-05 0.10524)
(-1.30206e-05 -1.95815e-05 0.105643)
(6.66752e-06 -9.05575e-06 0.105649)
(-6.69974e-06 -9.06275e-06 0.105649)
(5.75716e-05 5.75863e-05 0.10524)
(6.21354e-05 6.21074e-05 0.105205)
(-6.16203e-05 -6.15838e-05 0.105232)
(5.2132e-06 6.64134e-06 0.105648)
(-5.24779e-06 6.67599e-06 0.105648)
(2.62901e-06 2.5827e-06 0.105647)
(-2.65121e-06 2.60398e-06 0.105647)
(-6.21461e-05 6.21088e-05 0.105205)
(6.16097e-05 -6.1596e-05 0.105232)
(6.61774e-06 5.17275e-06 0.105649)
(6.65567e-06 -5.24113e-06 0.105648)
(2.54816e-06 2.5954e-06 0.105648)
(2.58559e-06 -2.63659e-06 0.105647)
(-6.67687e-06 -5.23202e-06 0.105648)
(-2.56016e-06 2.5974e-06 0.105648)
(-2.60326e-06 -2.63682e-06 0.105647)
(6.20868e-05 -6.21889e-05 0.105205)
(-6.15968e-05 6.1625e-05 0.105232)
(-5.18032e-06 -6.63309e-06 0.105649)
(2.57952e-06 -2.54857e-06 0.105648)
(-2.59341e-06 -2.55024e-06 0.105648)
(6.15769e-05 6.1607e-05 0.105232)
(5.87342e-05 5.87249e-05 0.105198)
(-6.21993e-05 -6.21676e-05 0.10523)
(2.25092e-06 1.97349e-06 0.105647)
(-2.27079e-06 1.98657e-06 0.105647)
(1.77707e-06 1.18444e-06 0.105646)
(-1.78268e-06 1.19519e-06 0.105646)
(-5.87549e-05 5.87007e-05 0.105198)
(6.22083e-05 -6.2182e-05 0.10523)
(1.93483e-06 2.21987e-06 0.105647)
(1.96735e-06 -2.25379e-06 0.105647)
(1.14604e-06 1.74082e-06 0.105647)
(1.19538e-06 -1.78087e-06 0.105646)
(-1.97433e-06 -2.24727e-06 0.105647)
(-1.13859e-06 1.74263e-06 0.105647)
(-1.18541e-06 -1.77316e-06 0.105646)
(5.87079e-05 -5.87696e-05 0.105198)
(-6.21655e-05 6.22022e-05 0.10523)
(-2.20497e-06 -1.92092e-06 0.105647)
(1.73686e-06 -1.14154e-06 0.105647)
(-1.72531e-06 -1.13439e-06 0.105647)
(6.21681e-05 6.21909e-05 0.10523)
(5.82657e-05 5.82482e-05 0.105196)
(-6.22314e-05 -6.21887e-05 0.105229)
(1.73617e-06 1.13734e-06 0.105646)
(-1.73722e-06 1.14088e-06 0.105646)
(1.69779e-06 1.08987e-06 0.105646)
(-1.69875e-06 1.09914e-06 0.105646)
(-5.82622e-05 5.8222e-05 0.105197)
(6.22452e-05 -6.21998e-05 0.10523)
(1.09914e-06 1.70238e-06 0.105647)
(1.1342e-06 -1.72741e-06 0.105646)
(1.04279e-06 1.6649e-06 0.105646)
(1.08822e-06 -1.68765e-06 0.105646)
(-1.13621e-06 -1.73692e-06 0.105646)
(-1.03096e-06 1.66671e-06 0.105646)
(-1.07605e-06 -1.68749e-06 0.105646)
(5.82438e-05 -5.82998e-05 0.105197)
(-6.22049e-05 6.22461e-05 0.105229)
(-1.68859e-06 -1.08709e-06 0.105646)
(1.64962e-06 -1.03303e-06 0.105646)
(-1.63836e-06 -1.0277e-06 0.105646)
(6.22005e-05 6.22217e-05 0.105229)
(5.82301e-05 5.82237e-05 0.105196)
(-6.22345e-05 -6.2185e-05 0.105229)
(1.69167e-06 1.08905e-06 0.105646)
(-1.69266e-06 1.09451e-06 0.105646)
(1.68717e-06 1.06921e-06 0.105646)
(-1.6846e-06 1.08087e-06 0.105646)
(-5.82243e-05 5.82005e-05 0.105196)
(6.22372e-05 -6.22057e-05 0.105229)
(1.03775e-06 1.66043e-06 0.105646)
(1.07885e-06 -1.68131e-06 0.105646)
(1.02663e-06 1.65404e-06 0.105646)
(1.06996e-06 -1.67913e-06 0.105646)
(-1.06505e-06 -1.67325e-06 0.105646)
(-1.02468e-06 1.65012e-06 0.105646)
(-1.07542e-06 -1.68083e-06 0.105646)
(5.82063e-05 -5.82587e-05 0.105196)
(-6.22028e-05 6.22401e-05 0.105229)
(-1.6238e-06 -1.01758e-06 0.105646)
(1.63824e-06 -1.0206e-06 0.105646)
(-1.6309e-06 -1.02911e-06 0.105646)
(6.21929e-05 6.22187e-05 0.105229)
(5.8223e-05 5.82112e-05 0.105196)
(-6.2248e-05 -6.22088e-05 0.105229)
(1.68733e-06 1.06515e-06 0.105646)
(-1.67625e-06 1.07256e-06 0.105646)
(1.67229e-06 1.06833e-06 0.105646)
(-1.6652e-06 1.06851e-06 0.105646)
(-5.82118e-05 5.81711e-05 0.105196)
(6.22437e-05 -6.22238e-05 0.105229)
(1.02935e-06 1.65033e-06 0.105646)
(1.06529e-06 -1.67753e-06 0.105646)
(1.02341e-06 1.62962e-06 0.105646)
(1.06272e-06 -1.6708e-06 0.105646)
(-1.07496e-06 -1.68036e-06 0.105646)
(-1.01016e-06 1.62726e-06 0.105646)
(-1.04761e-06 -1.65444e-06 0.105646)
(5.81945e-05 -5.82513e-05 0.105196)
(-6.22093e-05 6.22453e-05 0.105229)
(-1.63092e-06 -1.02996e-06 0.105646)
(1.63084e-06 -1.01042e-06 0.105646)
(-1.60357e-06 -1.00351e-06 0.105646)
(6.222e-05 6.2243e-05 0.105229)
(5.82039e-05 5.81771e-05 0.105196)
(-6.22405e-05 -6.21953e-05 0.105229)
(1.67843e-06 1.06694e-06 0.105646)
(-1.6707e-06 1.06608e-06 0.105646)
(1.66636e-06 1.05576e-06 0.105646)
(-1.66459e-06 1.06356e-06 0.105646)
(-5.8204e-05 5.81594e-05 0.105196)
(6.22467e-05 -6.22214e-05 0.105229)
(1.02837e-06 1.6314e-06 0.105646)
(1.05835e-06 -1.66416e-06 0.105646)
(1.01644e-06 1.62869e-06 0.105646)
(1.06118e-06 -1.66276e-06 0.105646)
(-1.04884e-06 -1.6559e-06 0.105646)
(-1.00859e-06 1.62402e-06 0.105646)
(-1.05369e-06 -1.65728e-06 0.105646)
(5.81817e-05 -5.8239e-05 0.105196)
(-6.22108e-05 6.22469e-05 0.105229)
(-1.60648e-06 -1.00391e-06 0.105646)
(1.62176e-06 -1.00746e-06 0.105646)
(-1.60849e-06 -1.00625e-06 0.105646)
(6.2205e-05 6.22293e-05 0.105229)
(5.8207e-05 5.818e-05 0.105196)
(-6.22339e-05 -6.21935e-05 0.105229)
(1.66088e-06 1.04622e-06 0.105646)
(-1.66322e-06 1.05779e-06 0.105646)
(1.67004e-06 1.06285e-06 0.105646)
(-1.6824e-06 1.07357e-06 0.105646)
(-5.81947e-05 5.81547e-05 0.105196)
(6.2232e-05 -6.22078e-05 0.105229)
(1.01453e-06 1.61898e-06 0.105646)
(1.0649e-06 -1.66954e-06 0.105646)
(1.02301e-06 1.63254e-06 0.105646)
(1.05512e-06 -1.65482e-06 0.105646)
(-1.04665e-06 -1.65078e-06 0.105646)
(-1.02104e-06 1.63565e-06 0.105646)
(-1.06075e-06 -1.66505e-06 0.105646)
(5.8183e-05 -5.82405e-05 0.105196)
(-6.22185e-05 6.22532e-05 0.105229)
(-1.60089e-06 -1.00005e-06 0.105646)
(1.61145e-06 -1.00578e-06 0.105646)
(-1.61702e-06 -1.01218e-06 0.105646)
(6.21956e-05 6.22188e-05 0.105229)
(5.82185e-05 5.81885e-05 0.105196)
(-6.22397e-05 -6.22014e-05 0.105229)
(1.6708e-06 1.05857e-06 0.105646)
(-1.68214e-06 1.07247e-06 0.105646)
(1.66482e-06 1.05766e-06 0.105646)
(-1.66764e-06 1.06367e-06 0.105646)
(-5.82136e-05 5.81722e-05 0.105196)
(6.22479e-05 -6.22228e-05 0.105229)
(1.02499e-06 1.62875e-06 0.105646)
(1.05596e-06 -1.65682e-06 0.105646)
(1.0181e-06 1.62456e-06 0.105646)
(1.06716e-06 -1.66892e-06 0.105646)
(-1.05831e-06 -1.66267e-06 0.105646)
(-1.00901e-06 1.61961e-06 0.105646)
(-1.06105e-06 -1.66829e-06 0.105646)
(5.81675e-05 -5.82262e-05 0.105196)
(-6.2199e-05 6.22342e-05 0.105229)
(-1.61543e-06 -1.0096e-06 0.105646)
(1.62487e-06 -1.01808e-06 0.105646)
(-1.61698e-06 -1.01284e-06 0.105646)
(6.21981e-05 6.22186e-05 0.105229)
(5.82163e-05 5.81845e-05 0.105196)
(-6.22378e-05 -6.2201e-05 0.105229)
(1.67879e-06 1.06203e-06 0.105646)
(-1.67514e-06 1.06897e-06 0.105646)
(1.66214e-06 1.05597e-06 0.105646)
(-1.67502e-06 1.07054e-06 0.105646)
(-5.82004e-05 5.81598e-05 0.105196)
(6.22356e-05 -6.22085e-05 0.105229)
(1.02781e-06 1.63e-06 0.105646)
(1.06204e-06 -1.66361e-06 0.105646)
(1.01631e-06 1.62385e-06 0.105646)
(1.06656e-06 -1.66414e-06 0.105646)
(-1.06374e-06 -1.67079e-06 0.105646)
(-1.01097e-06 1.62931e-06 0.105646)
(-1.04511e-06 -1.6475e-06 0.105646)
(5.81858e-05 -5.82438e-05 0.105196)
(-6.22026e-05 6.224e-05 0.105229)
(-1.62062e-06 -1.01682e-06 0.105646)
(1.62455e-06 -1.01436e-06 0.105646)
(-1.59828e-06 -9.99579e-07 0.105646)
(6.2219e-05 6.22407e-05 0.105229)
(5.82084e-05 5.81762e-05 0.105196)
(-6.22311e-05 -6.21949e-05 0.105229)
(1.66968e-06 1.05297e-06 0.105646)
(-1.6725e-06 1.0654e-06 0.105646)
(1.66534e-06 1.06074e-06 0.105646)
(-1.68221e-06 1.0741e-06 0.105646)
(-5.82047e-05 5.81658e-05 0.105196)
(6.22302e-05 -6.22062e-05 0.105229)
(1.01668e-06 1.61593e-06 0.105646)
(1.06237e-06 -1.66257e-06 0.105646)
(1.02224e-06 1.63077e-06 0.105646)
(1.06689e-06 -1.66813e-06 0.105646)
(-1.0473e-06 -1.65144e-06 0.105646)
(-1.01805e-06 1.63126e-06 0.105646)
(-1.06291e-06 -1.66978e-06 0.105646)
(5.81838e-05 -5.82401e-05 0.105196)
(-6.22019e-05 6.2237e-05 0.105229)
(-1.60232e-06 -1.00315e-06 0.105646)
(1.62435e-06 -1.0186e-06 0.105646)
(-1.62085e-06 -1.01905e-06 0.105646)
(6.21897e-05 6.22125e-05 0.105229)
(5.82131e-05 5.81825e-05 0.105196)
(-6.22311e-05 -6.21957e-05 0.105229)
(1.67069e-06 1.0547e-06 0.105646)
(-1.68156e-06 1.07012e-06 0.105646)
(1.66097e-06 1.05908e-06 0.105646)
(-1.67798e-06 1.07126e-06 0.105646)
(-5.82134e-05 5.81713e-05 0.105196)
(6.22341e-05 -6.22085e-05 0.105229)
(1.01551e-06 1.61091e-06 0.105646)
(1.0682e-06 -1.67181e-06 0.105646)
(1.02202e-06 1.63468e-06 0.105646)
(1.05606e-06 -1.65177e-06 0.105646)
(-1.05651e-06 -1.66251e-06 0.105646)
(-1.01347e-06 1.62719e-06 0.105646)
(-1.06103e-06 -1.66624e-06 0.105646)
(5.81864e-05 -5.82448e-05 0.105196)
(-6.22165e-05 6.22538e-05 0.105229)
(-1.61398e-06 -1.01339e-06 0.105646)
(1.60973e-06 -1.00589e-06 0.105646)
(-1.61878e-06 -1.0167e-06 0.105646)
(6.21939e-05 6.22183e-05 0.105229)
(5.82166e-05 5.81893e-05 0.105196)
(-6.2238e-05 -6.22083e-05 0.105229)
(1.68875e-06 1.06652e-06 0.105646)
(-1.67894e-06 1.07048e-06 0.105646)
(1.64463e-06 1.04759e-06 0.105646)
(-1.67464e-06 1.06957e-06 0.105646)
(-5.82079e-05 5.81681e-05 0.105196)
(6.22358e-05 -6.22097e-05 0.105229)
(1.02275e-06 1.62172e-06 0.105646)
(1.05938e-06 -1.65665e-06 0.105646)
(1.01677e-06 1.62639e-06 0.105646)
(1.06903e-06 -1.67062e-06 0.105646)
(-1.06031e-06 -1.66507e-06 0.105646)
(-1.00992e-06 1.62464e-06 0.105646)
(-1.04765e-06 -1.65384e-06 0.105646)
(5.81679e-05 -5.82237e-05 0.105196)
(-6.21926e-05 6.22289e-05 0.105229)
(-1.61821e-06 -1.01666e-06 0.105646)
(1.62906e-06 -1.01838e-06 0.105646)
(-1.60376e-06 -1.00647e-06 0.105646)
(6.22087e-05 6.223e-05 0.105229)
(5.81909e-05 5.81663e-05 0.105196)
(-6.22121e-05 -6.21903e-05 0.105229)
(1.6749e-06 1.05218e-06 0.105646)
(-1.67302e-06 1.06346e-06 0.105646)
(1.64987e-06 1.0539e-06 0.105646)
(-1.68011e-06 1.0733e-06 0.105646)
(-5.81998e-05 5.81591e-05 0.105196)
(6.22262e-05 -6.22e-05 0.105229)
(1.00379e-06 1.59146e-06 0.105646)
(1.06264e-06 -1.66696e-06 0.105646)
(1.0308e-06 1.65076e-06 0.105646)
(1.06307e-06 -1.66292e-06 0.105646)
(-1.05382e-06 -1.66163e-06 0.105646)
(-1.01515e-06 1.62798e-06 0.105646)
(-1.06015e-06 -1.66895e-06 0.105646)
(5.81832e-05 -5.82411e-05 0.105196)
(-6.21966e-05 6.22317e-05 0.105229)
(-1.61154e-06 -1.01308e-06 0.105646)
(1.61924e-06 -1.01402e-06 0.105646)
(-1.62024e-06 -1.01876e-06 0.105646)
(6.21844e-05 6.22068e-05 0.105229)
(5.82031e-05 5.81882e-05 0.105196)
(-6.22065e-05 -6.21975e-05 0.105229)
(1.70575e-06 1.07087e-06 0.105646)
(-1.68077e-06 1.0718e-06 0.105646)
(1.62293e-06 1.04175e-06 0.105646)
(-1.67428e-06 1.07459e-06 0.105646)
(-5.82024e-05 5.81616e-05 0.105196)
(6.22157e-05 -6.21872e-05 0.105229)
(1.01294e-06 1.60285e-06 0.105646)
(1.0656e-06 -1.66796e-06 0.105646)
(1.02782e-06 1.65005e-06 0.105646)
(1.05476e-06 -1.65593e-06 0.105646)
(-1.05921e-06 -1.66654e-06 0.105646)
(-1.01118e-06 1.62392e-06 0.105646)
(-1.04667e-06 -1.65049e-06 0.105646)
(5.81704e-05 -5.8228e-05 0.105196)
(-6.21846e-05 6.22192e-05 0.105229)
(-1.61817e-06 -1.01919e-06 0.105646)
(1.61287e-06 -1.00662e-06 0.105646)
(-1.60025e-06 -1.00512e-06 0.105646)
(6.21869e-05 6.22103e-05 0.105229)
(5.81516e-05 5.81601e-05 0.105196)
(1.70441e-06 1.07054e-06 0.105646)
(-1.67667e-06 1.06828e-06 0.105646)
(-5.81799e-05 5.81385e-05 0.105196)
(9.95634e-07 1.57533e-06 0.105646)
(1.05714e-06 -1.65697e-06 0.105646)
(-1.05363e-06 -1.65618e-06 0.105646)
(5.81332e-05 -5.81924e-05 0.105196)
(-1.6079e-06 -1.01406e-06 0.105646)
(-2.96707e-07 -2.99832e-07 0.0999988)
(1.64963e-05 1.64922e-05 0.100003)
(-4.69714e-07 1.37339e-05 0.1)
(1.3742e-05 -4.72668e-07 0.1)
(-4.58199e-05 5.49357e-06 0.100008)
(-1.49546e-05 1.49453e-05 0.1)
(-0.000127069 6.05076e-05 0.100059)
(-1.28361e-05 -8.34311e-07 0.0999958)
(5.49009e-06 -4.58017e-05 0.100008)
(1.49476e-05 -1.49551e-05 0.1)
(-8.31778e-07 -1.28352e-05 0.0999958)
(6.05147e-05 -0.000127003 0.100059)
(-1.7908e-05 -1.79109e-05 0.100003)
(-0.000135117 -8.15706e-05 0.100056)
(-8.15794e-05 -0.00013511 0.100056)
(-2.41584e-05 0.000137599 0.100718)
(0.000205047 0.000298602 0.0993447)
(2.33288e-05 0.000303432 0.100517)
(-8.85285e-05 0.000210548 0.0991595)
(-0.000331989 0.000892941 0.0976583)
(-8.40541e-05 0.000336401 0.0957597)
(0.000137426 -2.42594e-05 0.100718)
(0.000299193 0.000203801 0.0993453)
(0.000304261 2.32391e-05 0.100517)
(0.000210753 -8.825e-05 0.0991599)
(-0.000105994 0.000105943 0.100294)
(0.000105983 -0.000105997 0.100294)
(-0.000105976 -0.000105997 0.100294)
(9.15993e-05 9.15131e-05 0.100744)
(-9.15627e-05 9.15273e-05 0.100744)
(9.15644e-05 -9.15955e-05 0.100744)
(-9.15452e-05 -9.16097e-05 0.100744)
(-0.000278705 7.24084e-07 0.100752)
(-0.000402052 0.000206418 0.100514)
(-0.00017786 3.70466e-05 0.10033)
(-0.000151395 9.49568e-05 0.100554)
(-0.000345784 1.97289e-05 0.100469)
(-0.000180054 0.000173279 0.100754)
(-0.000150038 3.39315e-05 0.100494)
(0.000891904 -0.000330284 0.0976567)
(0.000336585 -8.38195e-05 0.0957608)
(6.61541e-07 -0.000278598 0.100752)
(3.70912e-05 -0.000177863 0.10033)
(0.000206515 -0.000401989 0.100514)
(9.49007e-05 -0.000151392 0.100554)
(1.97901e-05 -0.000345684 0.10047)
(3.39837e-05 -0.000149996 0.100495)
(0.000173323 -0.000180024 0.100753)
(-0.000390571 -0.000137826 0.100366)
(-0.000137932 -0.000390782 0.100366)
(-0.000111375 -0.000111485 0.100654)
(2.43349e-05 -9.6928e-05 0.100585)
(-9.71382e-05 2.44214e-05 0.100585)
(-1.25885e-05 0.000188813 0.10086)
(-4.76165e-05 0.000251765 0.0983083)
(-1.40135e-05 0.000192301 0.100774)
(-4.18766e-05 0.000246242 0.0979347)
(-0.00014223 0.000340592 0.0926112)
(-0.000124884 0.000292455 0.0909859)
(0.000188747 -1.27146e-05 0.10086)
(0.000252028 -4.75026e-05 0.0983087)
(0.000192313 -1.41106e-05 0.100775)